formula,Tc
Ti0.64Nb0.28Ta0.08,8.74
Sc0.75Th0.25Rh4B4,8.74
Y0.12Er0.88Rh4B4,8.74
Ti0.64Ta0.075Nb0.285,8.73
Ho0.7Lu0.3Ni2B2C1,8.72
Ho0.85Lu0.15Ni2B2C1,8.72
Ca1Fe0.85Ni0.15As1F1,8.72
Lu0.9Tm0.1Ru1B2,8.72
Ba0.37K0.63Bi1O2.952,8.71
Mo64Re16P10B10,8.71
Pr1Fe1As0.2P0.8F0.1O0.9,8.71
La0.75Rh4P12,8.71
Nd1.85Ce0.15Cu0.98Zn0.02O4,8.7
K0.8Bi1.2O3,8.7
K0.75Ca0.25Bi1O3,8.7
Ba1Pb0.85Bi0.15O3,8.7
Nb3Pt1,8.7
Bi0.35Pb0.65,8.7
Ce0.16La0.84,8.7
Ir0.29Mo0.41Nb0.3,8.7
Mo0.6Ru0.4,8.7
Nb0.38Zr0.62,8.7
V3Si0.6Ge0.4,8.7
C1Mo0.8Ta0.2,8.7
Y1Ni1.94Ru0.06B2C1,8.7
Tm1Ni1.97Co0.06B2C1,8.7
Nb0.8Ga0.14Ni0.06,8.7
Y1Ni1.8Mn0.2B2C1,8.7
Er1Rh4B4,8.7
Ca1Rh1.2Sn4.5,8.7
Pb0.5Yb0.5Mo6Se8,8.7
Bi1,8.7
Ho1Ni2B2C1,8.7
V3Ga0.4Si0.6,8.7
Pu1Rh1Ga5,8.7
Tc0.875Ti0.125,8.7
Ca3Rh4Sn13,8.7
Sr1Fe1.85Pd0.15As2,8.7
Ba1Fe1.918Co0.044Cu0.038As2,8.7
Zr0.96V0.04B2,8.7
Mo5P1B2,8.7
Nb5Re24,8.7
Ga41Mo6V2,8.7
Fe1Se0.87S0.13,8.7
Ba1Fe1.82Ni0.18As2,8.7
Fe1Se1,8.7
Fe1Se0.88,8.69
Bi0.525Pb0.32Sn0.155,8.68
Y5Os4Ge10,8.68
Bi1,8.68
Ho1Ni2B2C1,8.67
Ta0.6Mo0.4C1,8.67
Sr1Fe1.85Ni0.15As2,8.66
Y0.9Gd0.1Rh4B4,8.66
Er1Rh4B4,8.66
V1N1,8.65
Sr1Fe1.84Ni0.16As2,8.65
La1Bi1S2F0.5O0.5,8.65
Re0.77Mo0.23,8.65
Na1Fe1As1,8.64
Bi0.3Pb0.7,8.63
Y0.8Pr0.2Ni2B2C1,8.62
Lu1Rh4B4,8.61
Eu1Bi1S2F1,8.61
La1.82Ba0.18Cu0.99Ga0.01O4,8.6
Pu1Rh1Ga5,8.6
Hf1V2,8.6
Be22Mo0.3Re0.7,8.6
Be22Mo0.4Re0.6,8.6
Be0.8Os0.2,8.6
N1Nb2,8.6
Nb5Sb4,8.6
Nb0.35Ti0.6Zr0.05,8.6
V0.7Zr0.3,8.6
La3Se4,8.6
V3Si0.5Ga0.5,8.6
La3Sc4,8.6
Nb25Ti50Ta25,8.6
Ho1Ni2B2C1,8.6
Nb0.8Ga0.14Cr0.06,8.6
Yb1.2Mo6S8,8.6
Yb1Rh1.4Sn4.6,8.6
V0.75Ge0.225Al0.025,8.6
Nb0.25Zr0.75,8.6
Ge1V3,8.6
Nb3Si1,8.6
Yb3Rh4Sn13,8.6
Fe1Te0.8S0.2,8.6
Cu0.01Fe0.99Se0.85,8.6
Ba1Fe2As1.6P0.4,8.6
Ho1Ni2B2C,8.6
Bi2Te1,8.6
Fe0.995V0.005Se1,8.6
Fe1Te0.8Se0.2,8.6
Fe4.97Ga25V70.03,8.59
Mo0.02Nb0.98,8.58
Mg1C1Ni2.9Fe0.1,8.58
V75Si12.5Ge12.5,8.58
La1Fe0.975Co0.025As1O1,8.58
La1.885Sr0.115Cu0.99Zn0.01O4,8.56
Pd0.04Rh0.29Zr0.67,8.56
Ho1Ni2B2C1,8.56
Ti0.64Nb0.26Ta0.1,8.56
Zr28.4V56.8Nb14.8,8.56
Nb5Ir1.4Pt1.6O1,8.56
Nb0.957Ta0.043,8.55
Er1Rh4B4,8.55
Ba1Fe2As0.72P1.28,8.545
V2Zr1,8.54
Sc5Rh4Si10,8.54
La1Pt4Ge12,8.54
Ho1Ni2B2C1,8.53
Ba1Fe1.772Co0.228As2,8.52
C60K3,8.5
Sm1.295Gd0.555Ce0.15Cu1O4,8.5
La1.85Ce0.15Cu1O4,8.5
Pu1Rh1Ga5,8.5
Y1Ru4P12,8.5
Sc5Ir4Si10,8.5
Bi0.5Pb0.25Sn0.25,8.5
Fe0.03Nb0.25Ti0.72,8.5
Ga1,8.5
N5Nb4,8.5
N1V1,8.5
Nb0.5Ti0.2V0.3,8.5
V2Zr1,8.5
Nb0.14Re0.86,8.5
Bi0.5Pb0.25Sn0.26,8.5
Bi0.5Pb0.31Sn0.19,8.5
C0.1N0.9Nb1,8.5
C1Mo0.75Ta0.25,8.5
Cu3.2Mo6S8,8.5
Ho1Ni2B2C1,8.5
Y1Ni1.86Co0.14B2C1,8.5
N0.93H2.79Na1Rb2C60,8.5
La0.9Nd0.1Pt2.1B2.4C1.2,8.5
Na2Cs1C60,8.5
Mo0.82Re0.18,8.5
La2.9952Gd0.0048In1,8.5
Mo0.6Pt0.1Re0.3,8.5
Nb99.445O0.555,8.5
Sc1C0.75Ge0.02,8.5
Ta0.8Mo0.2C1,8.5
Li0.33V2O5,8.5
Er1Ni1.94Fe0.06B2C1,8.5
Fe1.01Se1,8.5
Fe1Se1,8.5
Al0.1Fe0.9Se0.85,8.5
Al0.25Fe0.75Se0.85,8.5
Fe1.14Te0.91S0.09,8.5
Fe0.95Se0.25Te0.75,8.5
Nb0.18Re0.82,8.5
Re0.2Mo0.8,8.5
Fe0.99V0.01Se1,8.5
Fe0.98V0.02Se1,8.5
Ho1Ni2B2C1,8.48
Fe1Se0.5Te0.5,8.47
Fe1Te0.8S0.2,8.465
Sc5Ir4Si10,8.46
Ga1,8.45
H15Th4,8.45
Yb1Mo6S8,8.45
Sr0.5Eu0.5Fe1.76Co0.24As2,8.45
Fe1.02Te0.5Se0.1S0.4,8.45
Lu0.5Ho0.5Rh4B4,8.43
Ba1Fe1.64Ru0.36As2,8.43
Hf1V2H0.4,8.42
Nb0.938Ta0.062,8.42
Na1Fe1Ni0.004As1,8.42
Nd1.85Ce0.15Cu0.994Ni0.006O4,8.4
Na2Rb0.5Cs0.5C60,8.4
Ba0.19K0.81Bi1O3,8.4
Pu0.9U0.1Co1Ga5,8.4
C60Ca5,8.4
Ba8Si46,8.4
Si1,8.4
As1Pb1,8.4
B5Hf0.2Mo1.8,8.4
Bi0.45Pb0.55,8.4
Bi0.5Pb0.5,8.4
Mo0.42Re0.58,8.4
V2.781Co0.219Ga1,8.4
Nb2.85V0.15Au1,8.4
Nb25Ti65Ta10,8.4
Th1Ni2B2C1,8.4
Mg1C1.5Ni3,8.4
Ho1Ni2B2C1,8.4
Pb1Mo6S7Se1,8.4
Nb0.9Ta0.1,8.4
Re0.71V0.29,8.4
Zr1Ru1P0.95B0.05,8.4
Bi4Te3,8.4
Sc5Ir4Si10,8.4
Sr1Pt3P1,8.4
Bi1,8.4
Fe1.07Te0.88S0.12,8.4
Ir0.3Rh0.64Se2,8.39
Ir1Mo3,8.35
Sn1Ta3,8.35
H3.63Th1,8.35
Sr1Pt3P1,8.35
La1.35Nd0.4Sr0.25Cu1O4,8.33
Zr0.96V0.04B2,8.33
Ti0.64Nb0.24Ta0.12,8.32
N1V1,8.32
Hf0.5Nb0.5,8.31
Y1Ba2Cu3O6.36,8.3
La1.85Sr0.15Cu0.98Ga0.02O4,8.3
La1.84Ba0.16Cu0.99Ga0.01O4,8.3
La1.48Nd0.4Sr0.12Cu1O4,8.3
Li1.16Ti1.84O4,8.3
Y0.5Th0.5Ni1C2,8.3
Ag1Mo4S5,8.3
Al0.01Nb0.97O0.02,8.3
B5Mo1.7Nb0.3,8.3
Be22Mo0.6Re0.4,8.3
Bi0.26Pb0.74,8.3
C1.3La1,8.3
Nb3Si0.5Sn0.5,8.3
Re0.73W0.27,8.3
Tc0.7V0.3,8.3
V0.6Zr0.4,8.3
Nb2.1Mo0.9Al1,8.3
Nb25Zr75,8.3
Na2Cs0.88C60,8.3
Mg1B1.4Be0.6,8.3
Sc5Ir4Si10,8.3
Tm1Th3.4Ru0.6B4,8.3
Er0.85Tb0.15Ni2B2C1,8.3
Nb0.25Zr0.75,8.3
Bi1,8.3
Fe1Se0.94,8.3
Mo7Re13B1,8.3
C1,8.3
Ca3Rh4Sn13,8.3
Ba1Fe1.738Rh0.262As2,8.3
Fe1Se0.828Sb0.092,8.3
Sc5Ir4Si10,8.29
Li2Pd3B1,8.29
La1Pt4Ge12,8.29
Ta0.685Ti0.315,8.28
Lu1Rh4B4,8.28
Mo0.815Re0.185,8.27
Sc5Rh4Si10,8.27
La1Pt4Ge12,8.27
Fe1Se0.85,8.26
B1Nb1,8.25
La3S4,8.25
Y2I1.5Cl0.5C2,8.25
Mo0.02Nb0.98,8.24
Sc5Ir4Si10,8.23
Er0.98Gd0.02Rh4B4,8.22
Er0.79Ho0.21Rh4B4,8.22
Pr0.1La0.9Pt4Ge12,8.22
Fe1Se0.98,8.21
Ba2Ti2Fe1.92Cr0.08As4O1,8.21
La1.88Ba0.12Cu0.99Ga0.01O4,8.2
La1.83Sr0.17Cu0.96Ni0.04O4,8.2
La1.69Nd0.2Ba0.11Cu1O4,8.2
Li2Pd3B1,8.2
Ba7.61Si46,8.2
Bi0.5Cd0.125Pb0.25Sn0.125,8.2
C3Er0.2Th1.8,8.2
C3Er0.4Th1.6,8.2
Nb3Sn0.73Ge0.27,8.2
Nb79.1Sn9.4Al2.1Ge9.4,8.2
Bi0.5Cd0.25Pb0.25Sn0.12,8.2
Y1Ni1.9Fe0.1B2C1,8.2
Er1Ni1.98Co0.04B2C1,8.2
Si1,8.2
Ca3Rh4Sn13,8.2
Ga1,8.2
Ho0.9Dy0.1Ni2B2C1,8.2
Mg1C1Ni3,8.2
La2.98Ce0.02In1,8.2
Th1.8Er0.2C3,8.2
Th1.6Er0.4C3,8.2
Ga1Nb3,8.2
Sc1,8.2
Fe1Te0.93Se0.07,8.2
Zr0.95V0.05B2,8.2
Fe1Se1,8.2
La1Pt4Ge12,8.2
Fe0.95Co0.05Se0.3Te0.7,8.2
Al2C1Mo3,8.2
Bi2Se3,8.2
Nb1Si1As1,8.2
La1Fe0.918Zn0.082As1F0.28O0.68,8.2
Eu1Bi1S2F1,8.2
Eu1Sr2Bi2S4F4,8.2
Fe1Se0.84S0.16,8.2
Li2Pd3B1B1,8.19
Ti0.64Nb0.18Ta0.18,8.18
Ba1Fe1.55Ru0.45As2,8.18
Nb3Pt1,8.174
Ir1Mo3,8.174
Ba2Ti2Fe1.92Cr0.08As4O1,8.16
Bi0.2Pb0.8,8.15
Nb0.87Ta0.13,8.15
Ho0.9Dy0.1Ni2B2C1,8.15
V75Si12.5Ga12.5,8.15
Mo0.816Zr0.034B2,8.14
B2Mg1,8.13
Pr1Pt4Ge12,8.13
La3S4,8.12
Fe1Se0.779Te0.041,8.12
Nb3Pt1,8.111
Mo0.8448Zr0.0352B2,8.11
Gd0.71Pr1.14Ce0.15Cu1O4,8.1
La1.75Sr0.25Cu0.98Ni0.02O4,8.1
C3Er0.6Th1.4,8.1
C0.55W0.45,8.1
Re0.5W0.5,8.1
V3Si0.25Ga0.75,8.1
V2.49Mn0.42Si1,8.1
Y0.7Tb0.3Ni2B2C1,8.1
Nb0.8Ga0.13Ni0.07,8.1
Nb80Ga14Co6,8.1
Y0.8Gd0.2Ni2B2C1,8.1
Ba8Si46,8.1
Nb99.078O0.922,8.1
Y0.8Sc0.2Ru1B2,8.1
Th1.4Er0.6C3,8.1
La3S4,8.1
B2.5Mo1,8.1
Ga1V3H0.37,8.1
Sr1Fe1.88Ni0.12As2,8.1
Ba1Fe1.73Co0.27As2,8.1
Mo7Re13C1,8.1
Zr1Ru1P0.9B0.1,8.1
La2Pt3Ge5,8.1
Au0.15Sb0.85,8.1
Ge1Sb2Te4,8.1
Mo1Te2,8.1
Fe1Se0.82S0.18,8.1
Ir0.76Rh0.18Se2,8.09
Ca3Ir4Sn13,8.09
Nb0.85Ta0.15,8.08
Ba8Si46,8.07
La0.69Rh4P12,8.07
Pr0.2La0.8Pt4Ge12,8.07
La3S4,8.06
Er0.97Gd0.03Rh4B4,8.06
Er0.73Ho0.27Rh4B4,8.06
La0.8Th0.2Pt4Ge12,8.06
Bi0.625Pb0.375,8.05
La3S4,8.05
B2Nb0.6,8.04
Ho1Ni2B2C1,8.04
Tc1,8.035
Bi0.575Pb0.425,8.03
Pr0.3La0.7Pt4Ge12,8.02
La1.737Sr0.263Cu1O4,8
Eu1.85Ce0.15Cu1O4,8
Bi2Sr2Cu1O6,8
La1.875Ba0.075Sr0.05Cu1O4,8
Y0.92Ca0.08Sr2Cu2.5Fe0.5O6.92,8
La1.8Sr0.2Cu0.65Ni0.35O4,8
Bi2Sr1.3Sm0.7Cu1O6.405,8
C60Sm3,8
Cu0.75Cr0.25Sr2Y1.3Ce0.7Cu2O8.87,8
Nd1.85Ce0.15Cu0.993Ni0.007O4,8
Nd1.85Ce0.15Cu0.95Zn0.05O4,8
Ca0.1Ba1.65La1.25Cu3O6.98,8
Bi2Sr2Cu1O6.36,8
Nd1.48Tb0.38Ce0.15Cu1O4,8
Ca14Cu24O40.93,8
La1.85Sr0.15Cu0.9775Zn0.0225O4,8
La1.48Nd0.4Sr0.12Cu1O4,8
Na0.33V2O5,8
Fe0.5Ba2Sm1Cu2.5O7.54,8
Ca1.9Na0.1Cu1Cl2O2,8
Ba8Si46,8
Li2Pd3B1,8
B5Mo1.9Y0.1,8
C0.64Mo1,8
Co0.6Rh0.4Zr2,8
Ge1Ta3,8
In1Nb3,8
Ir0.25Zr0.75,8
Mo0.05Nb0.95,8
Nb0.2Zr0.8,8
Tc1,8
C1Nb1,8
Nb25V10Ti65,8
Cu2.6Mo6S8,8
Ho0.9Dy0.1Ni2B2C1,8
Ho1Ni2B2C1,8
N1H3Na1K2C60,8
Na2Rb0.5Cs0.5C60,8
Mg1C1Ni3,8
Mg1C1Ni2.8Fe0.2,8
Ba7.76Si46,8
La1Rh4Si2B1,8
Mo0.98Nb0.02Ga4,8
Mo0.96Nb0.04Ga4,8
Zr1Os1As1,8
V2Zr1,8
Ge2Zr1,8
Ga4Mo1,8
La1.94Sr0.06Cu1O4,8
Fe1Se0.72,8
Fe1Se0.88,8
Fe1.01Se1,8
Fe1Se0.98,8
Ba1Fe1.79Zn0.1Co0.11As2,8
Au0.1Sb0.9,8
Ba1Fe1.84Co0.13Mn0.03As2,8
Sc5Ir4Si10,8
Li0.15Sr2Cu1Br2O2,8
La1Fe1P1F0.05O0.95,8
Ba0.779Na0.221Fe2As2,8
Ba0.83K0.17Fe2As2,8
La1Pt4Ge12,8
Ba1Fe1.746Co0.254As2,8
Fe1Se0.4Te0.6,8
Yb0.8Pr0.2Ba2Cu3O6.88,79.9
La1Ba1.5Ca0.5Cu3O6.96,79.9
La1Ba1.25Ca0.75Cu3O6.958,79.9
Er0.85Hf0.15Ba2Cu3O6.813,79.9
Tm1Ba2Cu4O8,79.9
Y1Ba2Cu2.88Ga0.12O7,79.89
Bi4Sr3Ca1.6Y1.4Cu4O16,79.8
Bi2Sr1.8Ca1.2Cu2O8,79.8
Y1Ba1.8Sr0.2Cu4O8,79.8
Tm1Ba2Cu3O6.8,79.8
La1.25Ba1.35Ca0.4Cu3O7.16,79.8
Y1Ba1.972Ca0.028Cu4O8,79.7
Y0.75Ca0.1Pr0.15Ba2Cu3O6.95,79.6
Tm1Ba2Cu4O8,79.6
Y1Ba2Cu2.97Zn0.03O7,79.5
Bi1Pb1Sr2Y0.4Ca0.6Cu2O8,79.5
Dy1Ba1Sr1Cu3O6.89,79.5
Er0.85Ca0.15Ba2Cu3O6.93,79.5
Bi2Sr1.8Ca1.2Cu2O8,79.5
Y1Ba2Cu3O6.74,79.5
Gd0.8Hf0.2Ba2Cu3O6.79,79.5
Y0.975Ca0.025Ba2Cu4O8,79.5
Y0.7Ca0.3Ba2Cu4O8,79.5
Y1Ba1.46Sr0.54Cu4O8,79.5
Eu0.9Pr0.1Ba2Cu3O6.95,79.45
Y1Ba2Cu2.8Ni0.2O7,79.4
Y0.8Pr0.2Ba1Sr1Cu3O6.9,79.4
Y0.99Ca0.01Ba2Cu4O8,79.4
Sm1Ba2Cu3O6.95,79.4
Bi4Sr3Ca1.2Y1.8Cu4O16,79.3
Y1Ba2Cu3O6.65,79.3
Er0.99Ca0.01Ba2Cu4O8,79.3
Y0.9Ca0.1Ba2Cu3O6.5,79.3
Y1Ba2Cu2.82Ga0.18O7,79.24
La1.25Ca0.45Ba1.3Cu3O7.135,79.2
La1.25Ca0.5Ba1.25Cu3O7.137,79.2
Ho1Ba2Cu4O8,79.2
Y0.85Pr0.15Ba2Cu3O6.98,79.2
Tm0.99Ca0.01Ba2Cu4O8,79.2
Hg0.92Ba2.05Cu1.03O4.079,79.2
Y1Ba2Cu4O7.986,79.2
Y1Ba2Cu2.97Zn0.03O6.97,79.1
Y1Ba2Cu3O6.8,79
Y1Ba1.6Sr0.4Cu4O7.9,79
Y1Ba1.2Sr0.8Cu4O7.9,79
Y0.9Ca0.1Ba1.9La0.1Cu4O7.8,79
Bi1.6Pb0.4Sr1.6Ca1Nd0.4Cu2O8.17,79
Bi2Sr2Ca0.7Y0.3Cu2I1O8,79
Pb2Sr2Y0.61Ca0.39Cu3O8,79
Y1Ba1Sr1Cu3O6.94,79
Ho1Ba1Sr1Cu3O6.94,79
Y1Ba2Cu2.88Fe0.12O7,79
La2.5Ca1Ba2.5Cu6O14.146,79
La2.4Ca1.2Ba2.4Cu6O14.082,79
Y0.8Ca0.2Ba2Cu3O6.86,79
Tm1Ba2Cu4O8,79
La2.1Gd0.7Ca1.4Ba2.8Cu0.7O16.471,79
Ba1.6Sr0.4Yb0.65Ca0.35Cu3O6.52,79
Y0.85Ca0.15Ba2Cu3O6.9,79
La2.1Y0.7Ca1.4Ba2.8Cu7O16.433,79
Ho1Ba2Cu4O8,79
Tl1Sr1.5Gd0.5Ca1Cu2O7,79
La1Er1Ba2Ca2Cu6O14.122,79
La1.5Gd0.5Ba2Ca1Cu5O11.892,79
La1Gd1Ba2Ca2Cu6O14.1,79
Eu1Ba2Cu2.95Ga0.05O6.78,79
Y1Ba2Cu2.94Ni0.06O7,79
Lu0.9Pr0.1Ba1.7Sr0.3Cu3O6.95,79
La1.1Ba1.5Ca0.4Cu3O7.06,79
Y1Ba1.85Cu2.85Co0.15O7.04,79
La1.5Nd0.5Ca1Ba2Cu5O11.583,79
Y0.1La0.9Ba2Cu3O7.05,79
Ba2Ca3Cu4F1.6O8.4,79
Y0.95Sc0.05Ba2Cu4O8,79
Yb1Ba2Cu4O8,78.8
Ca0.4Ba1.35La1.25Cu3O7.15,78.8
Er0.8Hf0.2Ba2Cu3O6.772,78.8
Ca0.4Ba1.35La1.25Cu3O7.14,78.8
Bi2Sr1.7Ca1.3Cu2O8.211,78.7
Tm1Ba2Cu4O8,78.6
Nd1Ba2Cu3O6.86,78.6
Ho1Ba2Cu4O8,78.5
Y1Ba1.4Sr0.6Cu4O7.8,78.5
Bi2Sr2Ca1Cu2O8.22,78.5
Sm1.1Ba1.9Cu3O7.05,78.5
Bi2Sr1.5Ca1.5Cu2O8.19,78.5
Pb2Sr2Ho0.5Ca0.5Cu3O8,78.5
Nd1Ba1.6Sr0.4Cu3O6.721,78.5
Bi1.7Pb0.3Sr2Ca0.96Y0.04Cu2O8.06,78.5
Nd1Ba1.8La0.2O6.81,78.5
Nd0.4Ca0.6Ba0.6La0.4Cu3O6.71,78.5
Y0.9Pr0.1Ba2Cu3O6.95,78.5
Y1Ba2Cu3O6.8,78.5
Y1Ba2Cu2.85Ga0.15O7,78.49
Pb2Sr2Y0.5Ca0.5Cu3O8,78.4
Y0.8Ca0.1Pr0.1Ba2Cu3O7.01,78.4
Y1Ba2Cu3.99Ni0.01O8,78.4
Tl0.5Pb0.5Sr2Ca1Cu2O7,78.4
Y0.87Pr0.13Ba2Cu3O7,78.35
Er1Ba2Cu4O8,78.3
Y1Ba2Cu4O7.9,78.3
Y1Ba2Cu2.94Co0.06O7,78.3
Y1Ba2Cu2.97Zn0.03O7,78.21
Er1Ba2Cu3O6.78,78.2
Gd1Ba2Cu3H1.32O6.89,78.2
Hg1Ba2Cu1O4.055,78.2
Y0.8Ca0.2Ba2Cu3O6.89,78.2
Bi2.2Sr1.72La0.08Ca1Cu2O8,78.2
Y1Ba2Cu3O6.876,78.1
Y0.84Sr1.16Ba1Cu2.78S0.22O7,78.1
Y2La0.4Ba3.6Cu6O13.91,78
Y1Ba1.8La0.2Cu3O6.95,78
Y1Ba1.9Sr0.1Cu4O7.9,78
Y1Ba1.8Sr0.2Cu4O7.9,78
Y2Ba4Cu7O14.85,78
Bi2Sr2Ca1Cu2O8.198,78
Gd1Ba2Cu3O7,78
Er1Ba1Sr1Cu3O6.94,78
Y1Ba2Cu3O6.8,78
La2.375Ca1.25Ba2.375Cu6O14.062,78
Y0.7Ca0.3Ba2Cu3O6.78,78
Y0.99Ca0.01Ba2Cu4O8,78
Sr1.5Ba0.5Y1Cu2.8Ti0.2O7.2,78
Bi2Sr2Ca1Cu2O8.216,78
Lu0.8Ca0.2Ba2Cu3O6.68,78
Pb2Sr2Y0.5Ca0.5Cu3F0.8115O7.3458,78
Ba1.6Sr0.4Yb0.65Ca0.35Cu3O6.53,78
Y0.9Tb0.1Ba2Cu4O8,78
Y1Ba0.5Sr1.5Cu3O6.98,78
Y0.75Eu0.25Ba2Cu4O8,78
Tl1Sr1.5Er0.5Ca1Cu2O7,78
La1.5Er0.5Ba2Ca1Cu5O11.907,78
La1.7Nd0.3Ca0.6Ba2Cu4.6O11.892,78
La1.5Nd0.5Ca1Ba2Cu5O11.872,78
Y0.85Ca0.15Ba2Cu3O6.71,78
Tl1Ba2Ca0.7Gd0.3Cu2O7,78
Hg1Ba2Cu1O4.17,78
Y0.8Ca0.2Ba1.8La0.2Cu3O6.96,78
Y0.7Ca0.3Ba1.7La0.3Cu3O6.96,78
Y0.6Ca0.4Ba1.6La0.4Cu3O6.96,78
Hg1Ba2Cu1O4.31,78
Sm1Ba2Cu2.96Fe0.04O6.81,78
Dy1Ba2Cu2.94Fe0.06O6.88,78
La1Ba1.5Ca0.5Cu3O7.011,78
Hg1Ba2Cu1FO4,78
Y1Ba1.8La0.2Cu3O6.96,78
Y1Ba2Cu3.996Ni0.004O8,78
Bi2Sr2Ca1Cu1.98Ni0.02O8,78
Y0.9Ca0.1Ba2Cu3O6.91,78
La1.5Nd0.5Ba2Ca1Cu5O7.123,78
Tm1Ba2Cu3O6.71,78
Bi0.2Pb0.4S0.4Sr2Ca0.7Nd0.3Cu2O6.99,78
Y1Sr2Mo0.25Cu2.75O7.54,78
Tm0.8Pr0.2Ba2Cu3O6.95,77.9
Y0.74Ca0.16Sr0.6Ba1.5Cu2.78S0.22O7,77.9
Y1Ba2Cu3O6.76,77.8
La1.25Ca0.4Ba1.35Cu3O7.141,77.8
Er1Ba2Cu4O8,77.8
Y1Ba2Cu3.98Ga0.02O8,77.75
Gd0.5Ca0.35Mo0.15Ba2Cu3O6.586,77.7
Y0.7Ca0.15Pr0.15Ba2Cu3O6.95,77.6
Bi2Sr1.6Ca1.4Cu2O8.16,77.6
Bi2Sr2Ca1Cu2O8.22,77.6
Y1Ba2Cu4O7.8,77.5
Y1Ba2Cu3.96Ga0.04O8,77.5
Er0.88Ca0.12Ba2Cu2.82Co0.18O6.93,77.5
Er0.88Ca0.12Ba2Cu2.28Co0.18O6.93,77.5
Hg0.5Fe0.5Sr2Y0.4Ca0.6Cu2O6.67,77.5
Nd1.08Ba1.92Cu3O6.17,77.5
La3Ca0.9Cd0.1Ba3Cu7O16.611,77.5
Ho1Ba2Cu4O8,77.4
Dy0.85Pr0.15Ba2Cu3O6.9,77.4
Ho0.97Ca0.03Ba2Cu4O8,77.4
Sm1.15Ba1.85Cu3O6.95,77.3
Y1Ba2Cu2.88Fe0.12O7,77.3
Y1Ba1.8La0.2Cu3O7.05,77.3
Er0.7Ca0.15Hf0.15Ba2Cu3O6.821,77.3
Y1Ba2Cu2.85Ni0.15O6.97,77.2
Dy1Ba2Cu4O8,77.2
Y1Ba2Cu2.88Ni0.18O7,77.2
Y0.7Ca0.1Pr0.2Ba2Cu3O6.95,77.1
Y0.65Ca0.15Pr0.2Ba2Cu3O6.95,77.1
Y1Ba2Cu3O6.8,77.1
Dy1Ba1Sr1Cu3O6.9,77.05
Eu1Ba2Cu3O6.76,77
Ho1Ba2Cu4O8,77
Y1Ba2Cu2.97Zn0.03O6.85,77
Pb0.8Sr1Ba1.2Y0.7Ca0.3Cu3O8.35,77
Bi2Sr1.8Li0.2Ca1Cu2O8,77
Bi2Sr2Ca0.9Y0.1Cu2O8,77
Y1Ba2Cu4Li0.016O8,77
Y1Ba2Cu3O6.7,77
Y0.95Pr0.05Ba2Cu4O8,77
Tl0.67Cr0.33Sr4Cu2C1O10,77
Y1Ba2Cu2.94Ti0.06O6.91,77
Al1Sr2Ca2Cu3O9.9,77
Nd0.8Ca0.2Ba1Sr1Cu3O6.78,77
Y1Ba1Sr1Cu2.975Sn0.025O6.92,77
Ge0.5Cu0.5Sr2Ca1.8Y0.2Cu3O9.3,77
Ge0.4Cu0.6Sr2Ca1.7Y0.3Cu3O9.3,77
Er0.76Ca0.24Ba1.6Sr0.4Cu2.76Co0.24O6.88,77
Cu0.8W0.2Sr2Y1Cu2O7.3,77
Ba1.6Sr0.4Yb0.65Ca0.35Cu3O6.63,77
Sr2Ca1Cu2O5.5,77
Y1Ba2Cu3O6.8,77
Y1Ba2Cu3O6.85,77
La2.5Y0.5Ca1Ba3Cu6.86Fe0.14O16.578,77
Y0.5Eu0.5Ba2Cu4O8,77
Ho1Ba2Cu2.94O6.94,77
Lu0.85Pr0.15Ba1.7Sr0.3Cu3O6.91,77
Y1Ba2Cu2.97Zn0.03O7,77
La1.1Ba1.5Ca0.4Cu3O7.11,77
Hg0.8Nd0.2Ba2Cu1O4.3,77
Y1Ba1.7La0.3Cu3O7.02,77
Bi2Sr2Ca1Cu1.97Ni0.03O8,77
La1.7Nd0.3Ba2Ca0.6Cu4.6O7.135,77
Ba2Ca3Cu4F1.6O8.4,77
Y1Ba2Cu2.79Ga0.21O7,76.91
Y0.9Ca0.1Ba2Cu2.75Co0.25O7.03,76.9
Ca0.3Ba1.45La1.25Cu3O7.172,76.9
Ho0.99Ca0.01Ba2Cu4O8,76.8
Nd1.15Ba1.85Cu3O6.96,76.8
Y1Ba1.8Sr0.2Cu4O8,76.8
Y1Ba2Cu3H1.15O6.91,76.7
Y0.8Ca0.2Ba2Cu3O6.7,76.7
Bi1.7Pb0.3Sr2Ca0.9Nd0.1Cu2O8.27,76.67
Y1Ba2Cu2.94Fe0.06O6.954,76.6
Y1Ba2Cu3O6.75,76.6
Y1Ba1.6Sr0.4Cu4O8,76.6
Pb2Sr2Dy1Cu3O8,76.5
Bi2Sr1.1Ca1.9Cu2O8.22,76.5
Bi2Sr1.2Ca1.8Cu2O8.199,76.5
Bi2Sr1.3Ca1.7Cu2O8.19,76.5
Er0.8Ca0.2Ba2Cu3O6.91,76.5
Y1Ba1.8Sr0.2Cu4O8,76.5
Gd1Ba1Sr1Cu3O6.9371,76.5
Y0.75Ca0.05Pr0.2Ba2Cu3O6.95,76.4
Y1Ba2Cu2.95Fe0.05O6.84,76.4
Bi2Sr1Ca2Cu2O8.229,76.4
Er0.8Pr0.2Ba2Cu3O7,76.4
Pb2Sr2Ho0.05Ca0.5Cu2.994Al0.006O8,76.4
La1Ba1Ca1Cu3O6.98,76.35
Y1Ba1Sr1Cu2.975Sn0.025O6.91,76.3
Y1Ba1.8La0.2Cu3O7,76.3
Y1Ba2Cu3O6.73,76.3
Y0.75Pr0.15Ca0.1Ba2Cu4O8,76.2
Ho1Ba2Cu4O8,76.2
Y1Ba2Cu2.9Fe0.1O6.92,76
Bi2Sr2Ca0.9Y0.1Cu2O8,76
Ho1Ba2Cu4O8,76
Bi1Pb1Sr2Y0.65Ca0.35Cu2O8,76
Y1Ba2Cu2.85Fe0.15O7.02,76
Bi2Sr2Ca1Cu2O8.28,76
Bi2Sr2Ca0.6Y0.4Cu2O8.36,76
Dy1Ba2Cu4O8,76
Ca1Ba1La1Cu3O6.85,76
La1Ba2Cu3O6.89,76
Al1Sr2Ca2Cu3O10.1,76
Pb2Sr2Y0.53Ca0.47Cu3O8,76
Nd1.1Ba1.9Cu3O6.935,76
La2Ca2Ba2Cu3O13.712,76
Tm1.8Pr0.2Ba4Cu7O14.725,76
Ba1.6Sr0.4Yb0.85Ca0.15Cu3O6.83,76
Ba1.6Sr0.4Yb0.6Ca0.4Cu3O6.61,76
Tl0.5Pb0.5Sr4Cu2C0.9N0.1O7,76
Pb0.5Tl0.5Sr4Cu2C0.9N0.1O10,76
Tl1Sr1.7Cr0.3Cu1O5,76
Cu0.5P0.5Sr2Ca1.8Y0.2Cu3O9.45,76
La1Ba1.5Ca0.5Cu3O6.85,76
Ca0.3La0.7Ba1.45La0.55Cu3O7.16,76
Gd0.55Ca0.35Hf0.15Ba2Cu3O7.06,76
La1.6Er0.4Ba2Ca0.8Cu4.8O11.424,76
La1.55Er0.45Ba2Ca0.9Cu4.9O11.664,76
La1.6Gd0.4Ba2Ca0.8Cu4.8O11.401,76
Y1Ba1.76Sr0.24Cu4O8,76
La1.7Yb0.4Ba1.7Ca0.8Cu5O11.795,76
La1.5Yb0.5Ba1.5Ca1Cu5O11.785,76
Ca0.4La1.25Ba1.35Cu3O7.135,76
Yb0.8Pr0.2Ba1.7Sr0.3Cu3O6.92,76
Y1Ba2Cu2.97Zn0.03O7,76
Hg1Tl1Ba2Ca2Cu3O10,76
La1Ba1.5Ca0.5Cu3O7.079,76
La1.1Ba1.5Ca0.4Cu3O7.123,76
Er1Ba2Cu2.94Zn0.03Fe0.03O6.94,76
Y1Ba2Cu3O6.63,76
La1.5Nd0.5Ca1Ba2Cu4.95Mo0.05O11.345,76
Fe0.5Ba2Ho1Cu2.5O7.49,76
Hg0.4Pr1.1Sr2Ca0.5Cu2O7.9,76
La3Ca0.8Cd0.2Ba3Cu7O16.536,76
Ba2Ca2Cu3F2O6,76
Y0.8Pr0.2Ba2Cu3O7,75.8
Y1Ba2Cu3O6.765,75.8
Bi2Sr2Ca0.9Pr0.1Cu2O8.234,75.8
Y1Ba1.4Sr0.6Cu4O8,75.8
Bi1.7Pb0.3Sr2Ca1Cu2O0.23,75.75
Y1Ba2Cu2.82Fe0.18O6.95,75.6
Y1Ba1Sr1Cu3O6.88,75.6
Pb2Sr2Y1Cu3O8,75.5
Bi2Sr2Ca0.9Ce0.1Cu2O8,75.455
Y1Ba2Cu3O6.75,75.3
Y1Ba2Cu2.97Zn0.03O7,75.2
La1.2Ba1.5Ca0.3Cu3O7.06,75.2
La1.25Ba1.45Ca0.3Cu3O7.15,75.2
Y1Ba2Cu3O6.87,75.1
Sr2Nd0.4Ca0.6Cu2F1O5,75.1
Y0.74Ca0.16Sr1.1Ba1Cu2.78S0.22O7,75.1
Y0.925Ca0.075Ba2Cu3O6.68,75.1
Gd0.75Ca0.1Mo0.15Ba2Cu3O6.671,75.1
Y0.95Ca0.05Ba2Cu2.75Co0.25O7.06,75.1
Y1Ba2Cu2.9Al0.1O7,75
Y1.2Ba0.8Cu1O4,75
Y1Ba2Cu2.85Ni0.15O6.84,75
Gd1Ba2Cu2.91Fe0.09O6.94,75
Bi1Pb1Sr2Y0.3Ca0.7Cu2O8,75
Dy1Ba2Cu4O8,75
Pb0.8Sr0.8Ba1.2Y0.7Ca0.3Cu3.2O8.3,75
Y1Ba2Cu2.7Ga0.3O6.93,75
Bi2Sr2Ca0.8Y0.2Cu2I1O8,75
Pb2Sr2Y0.61Ca0.39Cu3O8,75
Y0.9Pr0.1Ba2Cu4O8,75
Hg0.9Mo0.1Ba2Cu1O4.2,75
Bi2Sr2Ca1Cu2O8.26,75
Bi2Sr2Ca1Cu2O8.28,75
Pb2Sr2Ho0.5Ca0.5Cu3O8,75
Y0.85Pr0.15Ba2Cu3O6.84,75
Tl1Sr2Ca1Cu2O6.68,75
B1Sr2Ca2Cu3O9,75
Eu2Ba4Cu7O14.671,75
Ba1.6Sr0.4Yb0.6Ca0.4Cu3O6.36,75
Y1Ba2Cu3H0.1O6.795,75
Eu1Ba1Sr0.8Ca0.2Cu3O6.95,75
Eu1Ba1Sr0.7Ca0.3Cu3O6.95,75
Y0.868Ca0.132Ba2Cu3O6.928,75
Nd0.7Ca0.3Ba0.6La0.4Cu3O6.79,75
La1Ba1.1Ca0.9Cu3O7.02,75
La1Ba1Ca1Cu3O6.99,75
Y0.25Eu0.75Ba2Cu4O8,75
Ca5.9Sr3.5Bi0.3Y0.1Pb0.1Al0.1Cu15.1O29,75
Y0.9Ca0.1Ba2Cu3O6.7,75
Er1Ba2Cu3O6.6,75
Lu0.8Pr0.2Ba1.7Sr0.3Cu3O6.93,75
Y1Ba2Cu3O6.77,75
Hg1Ba2Cu1O4.06,75
Y1Ba2Cu2.9Ni0.1O6.93,75
Y1Ba2Cu2.94Zn0.06O6.93,75
Hg1Ba2Cu0.97Zn0.03O4.063,75
Bi0.8Pb0.1S0.1Sr2Ca0.7Nd0.3Cu2O6.95,75
Bi0.5Pb0.25S0.25Sr2Ca0.7Nd0.3Cu2O6.97,75
Fe0.5Ba2Dy1Cu2.5O7.52,75
V0.5Sr2.4Ca3.6Cu5.5O13.55,75
V0.5Sr2.3Ca4.7Cu6.5O15.5,75
Nd1Ba1.4Sr0.6Cu3O6.94,75
Sr2Cu1O3.4,75
Bi0.2Pb0.4La1.2Sr1.3Cu1.9O5.78,75
Y0.95Ga0.05Ba2Cu4O8,75
Sr1.84Ba0.16Cu1O3.4,75
Lu0.8Nd0.2Ba2Cu4O8,75
Ca3Ir3.64Co0.36Sn13,75
Y1Ba2Cu2.9Fe0.1O6.9,74.9
Y0.8Pr0.2Ba2Cu3O6.96,74.7
Gd1Ba2Cu4O8,74.7
Y0.8Pr0.2Ba2Cu3O6.95,74.6
Y0.9Pr0.1Ba2Cu4O8,74.6
Y1Ba2Cu2.91Zn0.09O6.9,74.6
Y1Ba2Cu3.92Ga0.08O8,74.5
Hg1.4Tl0.6Ba2Y0.7Ca0.3Cu2O7.81,74.5
Bi8Sr5Ca7Cu9O34.94,74.4
Y1Ba2Cu2.88Ni0.12O7,74.3
Gd0.9Pr0.1Ba2Cu3O6.95,74.3
Bi8Sr6Ca6Cu9O34,74.3
La1.25Ca0.35Ba1.4Cu3O7.108,74.3
Y1Ba1.98La0.02Cu4O8,74.3
Bi2Sr2Ca1Cu1.99Fe0.01O8,74.1
Y1Ba2Cu2.91Ti0.09O6.9,74.1
Y1Ba2Cu2.82Fe0.18O7,74
Bi2Sr2Ca0.65Y0.35Cu2O8.3,74
Ho1Ba2Cu4O8,74
Pb0.8Sr1Ba1.2Y0.7Ca0.3Cu3O8.28,74
Nd1Ba1Sr1Cu3O6.94,74
Bi0.33Hg0.67Sr2Y1Cu2O7,74
Y1Ba2Cu3O6.883,74
Y0.9Ca0.1Ba2Cu2.9Ni0.1O6.86,74
Hg0.8Mo0.2Ba2Cu1O4.4,74
Dy1Ba2Cu4O8,74
La2.25Ca1.5Ba2.25Cu6O13.93,74
La2.7Ca0.6Ba2.7Cu6O14.186,74
Y1Ba2Cu3.98Ni0.02O8,74
Y1Ba2Cu3.992Zn0.008O8,74
La2.7Gd0.4Ca0.8Ba3.1Cu7O16.537,74
Ba1.6Sr0.4Yb0.75Ca0.25Cu3O6.68,74
La5.8Y0.4Ca0.8Ba3.1Cu7O16.548,74
Cu0.5P0.5Sr2Ca1.8Y0.2Cu3O9.45,74
La1.05Ba1.5Ca0.45Cu3O6.81,74
La1Ba1.4Ca0.6Cu3O6.9,74
La1Ba1.2Ca0.8Cu3O6.95,74
Gd1Ba2Cu4O8,74
Eu1Ba2Cu4O8,74
Pb2Sr2Eu0.75Ca0.25Cu3O8.1,74
Y0.8Pr0.2Ba2Cu4O7.95,74
Bi2Sr2Ca1Cu2O8.197,74
Tl1Sr2Ca0.4Pr0.6Cu2O7,74
Hg1Ba2Cu1O4.12,74
La1.5Ba1Ca0.5Cu3O7.195,74
Y1Ba0.75Sr1.25Cu3O6.94,74
Bi2Sr2Ca1Cu1.952Ni0.048O8,74
La1Ba2Cu3O6.95,74
Y0.9Ga0.1Ba2Cu4O8,74
Y1Ba2Cu2.95Zn0.05O6.94,73.9
Bi2Sr2Ca1Cu2O8.242,73.9
Y1Ba1Sr1Cu2.95Sn0.05O6.96,73.9
Y0.8Ca0.2Ba2Cu3O6.9,73.9
Ca0.9Nd0.1Ba1La1Cu3O6.87,73.8
Ca0.8Nd0.2Ba1La1Cu3O6.99,73.8
Ca0.7Nd0.3Ba1La1Cu3O7.04,73.8
Bi2Sr1.8Ca1.2Cu2O8.211,73.7
Y1Ba1Sr1Cu2.95Sn0.05O6.96,73.7
Y1Ba2Cu3O6.7,73.62
Er0.75Ca0.1Hf0.15Ba2Cu3O6.796,73.6
Dy1Ba2Cu4O8,73.6
Y1Ba2Cu3O6.73,73.6
Bi8Sr8Ca4Cu9O34.25,73.5
Bi1.9Pb0.1Sr2Ca1Cu2O8.2,73.5
Lu0.7Pr0.3Ba2Cu3O7,73.5
Y1Ba2Cu3.88Ga0.12O8,73.5
Gd1Sr0.1Ba1.9Cu4O8,73.5
Yb0.7Pr0.3Ba2Cu3O6.97,73.5
Hg1Ba2Cu1O4.05,73.5
Y1Ba1.76La0.24Cu3O7.024,73.4
Gd1Ba2Cu4O8,73.4
Y0.7Pr0.2Ca0.1Ba2Cu4O8,73.4
Y0.8Pr0.2Ba2Cu3O6.95,73.3
Y1Ba2Cu3.98Co0.02O8,73.3
Y1Ba2Cu3.99Zn0.01O8,73.3
Bi1.6Pb0.4Sr2Ca2Cu3O10.24,73.3
Pb2Sr2Ho0.5Ca0.5Cu3O8,73.2
Y1Ba2Cu3O6.8,73.2
Y0.8Pr0.2Ba2Cu3O7,73.2
Sr2Nd0.3Ca0.7Cu2F1O5,73.1
Gd1Ba2Cu4O8,73.1
Gd1Sr1.8Ba0.2Cu4O8,73.1
Y1Ba2Cu2.7Al0.3O6.99,73
Y1Ba2Cu2.9Co0.1O6.82,73
Y1Ba2Cu2.7Ni0.3O6.88,73
Bi0.7Pb0.3Sr1Ca1Cu1.8O6,73
Bi1.7Pb0.3Sr2Ca0.7Y0.3Cu2O8.26,73
Bi2Sr1.5Ca1.5Cu2O8.22,73
Y1Ba2Cu2.85Ni0.15O6.9,73
Sm1Ba2Cu3O7,73
Bi2Sr2Ca0.8Pr0.2Cu2O8,73
Bi2Sr2Ca0.8Gd0.2Cu2O8,73
Y1Sr2Cu2.85Re0.15O7.1,73
Bi2Sr2Ca1Cu2O8.212,73
Tl1Sr2Ca1Cu2O7,73
Hg0.9Ba2Cu1O4,73
Y1Ba2Cu2.94Fe0.06O7,73
Y0.7Ca0.3Ba1.3La0.7Cu3O7.16,73
Nd1Ba1.8Ca0.2Cu3O6.866,73
Ca2Sr2Cu3Ga1O9,73
Er1Ba2Cu2.94Co0.06O6.8,73
Ge0.5Cu0.5Sr2Ca1.7Y0.3Cu3O9.3,73
Hg1Ba2Cu1O4.045,73
Y1Ba2Cu3O6.75,73
Pb2Sr2Y0.5Ca0.5Cu3F1.0031O7.2608,73
Ba1.6Sr0.4Yb0.65Ca0.35Cu3O6.45,73
Y1Ba2Cu3H0.1O6.765,73
La0.9Ba1.5Ca0.6Cu3O6.74,73
La1Ba1.3Ca0.7Cu3O6.92,73
Gd0.45Ca0.4Mo0.15Ba2Cu3O6.537,73
Y1Ba2Cu3.96Fe0.04O8,73
Pb2Sr2Eu0.8Ca0.2Cu3O8.1,73
Pb2Sr2Eu0.7Ca0.3Cu3O8.1,73
La1.3Yb0.6Ba1.3Ca1.2Cu5O11.74,73
Y0.8Ca0.2Ba1.5La0.5Cu3O7.13,73
Eu1Ba1.9Pr0.1Cu3O6.75,73
La0.8Ca0.2Ba1.5Sr0.5Cu3O6.794,73
Bi2.1Sr1.8Ca1Cu1.96Co0.04O8,73
V0.5Sr2.6Ca5.4Cu7.5O17.3,73
Tl0.5Pb0.5Sr2Ca1Cu2.95Zn0.05O7,73
Y0.6Ca0.2Pr0.2Ba2Cu3O6.95,72.9
Ca0.4Ba1.25La1.35Cu3O7.19,72.9
Y1Ba1.5Sr0.5Cu3O6.85,72.9
Y1Ba2Cu2.975Zn0.025O6.85,72.85