formula,Tc
Mg1.99Mn0.01B2,37.6
Mg0.97Cu0.03B2,37.58
Y1Ba2Cu3O6.49,37.5
Y1Ba2Cu2.94Ni0.06O6.56,37.5
La2Cu1O4.32,37.5
Tl1Sr1.9Cr0.1Cu1O5,37.5
La1.828Sr0.172Cu1O4,37.5
Sr2Y1Ru0.9Cu0.1O6,37.5
Mg0.98Al0.02B2,37.5
Mg0.9Al0.1B2,37.5
B2Mg1,37.5
Mg0.85Li0.15B2,37.5
Mg0.6Ti0.4B2,37.5
Mg1B1.958C0.042,37.5
Ba0.7K0.3Fe2As2,37.5
Na0.65Fe1.93Se2,37.5
Ba0.66K0.34Fe2As2,37.5
Ca0.8La0.2Fe0.98Co0.02As2,37.5
Y1Ba2Cu2.9Fe0.1O6.75,37.4
Y1Ba2Cu2.95Fe0.05O6.64,37.4
La1.75Pr0.1Sr0.15Cu1O4,37.4
B2Mg1,37.4
Mg0.9Li0.1B2,37.4
Mg0.98Co0.02B2,37.4
Mg1.985Mn0.015B2,37.4
Ba0.7K0.3Fe2As2,37.4
Nd1Fe0.9Ru0.1As1F0.11O0.89,37.4
K0.8Fe1.97Mn0.03Se2,37.4
Ba0.58K0.42Fe2As2,37.4
Mg1.9Cu0.1B12,37.3
B2Mg1,37.3
Mg0.97Al0.03B2,37.3
Mg0.9Zr0.1B2,37.3
Mg0.8Zr0.2B2,37.3
Mg1B1.9C0.1,37.3
Nb0.6Ru0.4Sr2Eu1.5Ce0.5Cu2O10,37.3
Ba0.6K0.4Fe2As2,37.3
Ce1Fe1As1H0.4O0.6,37.3
La1.8Sr0.2Cu1O4,37.2
La1.83Sr0.17Cu1O4,37.2
Mg1B1.98C0.02,37.2
B2Mg0.7,37.2
Sm1Fe0.99Mn0.01As1F0.12O0.88,37.2
Ba0.5K0.5Fe1.9Ru0.1As2,37.14
La1.84Sr0.16Cu1O4,37
La1.83Sr0.17Cu1O4,37
Tl0.8La1Sr1Cu1.2O5,37
La2Cu1O4,37
Bi2Sr2Ca0.6Y0.4Cu2O8,37
Y2Ba4Cu7O14.13,37
Y1Sr2Cu2.75Re0.25O7,37
Y1Sr2Cu2.6Fe0.4O7,37
La1.75Sr0.25Cu1O4.07,37
La1.67Sr0.33Cu1O4,37
Nd2Cu1F0.3O3.7,37
La1.82Sr0.18Cu1O4,37
La2Tl2Sr2Cu3O11,37
Tl1Sr2Ca1Cu2O6.75,37
Nd1Ba1.6La0.4O6.68,37
Nd1Ba1Ca1Cu3O7,37
La1.85Sr0.15Cu1O3.998,37
Y0.6Pr0.4Ba2Cu3O6.95,37
Y0.8Pr0.2Ba2Cu3O6.6,37
Y1Ba2Cu2.94Zn0.06O6.75,37
La1.82Sr0.18Cu0.98Mn0.02O4,37
La1.79Sr0.21Cu0.96Mn0.04O4,37
La1.76Sr0.24Cu0.94Mn0.06O4,37
La1.73Sr0.27Cu0.92Mn0.08O4,37
La1.7Sr0.3Cu0.9Mn0.1O4,37
Hg1.4Tl0.6Ba2Y0.9Ca0.1Cu2O7.88,37
La1.86Sr0.14Cu1O4,37
La1.7575Pr0.0925Sr0.15Cu1O4,37
Bi1.6Sr0.4Yb1Cu3O6.35,37
Ru1Sr2Gd1Cu2O8,37
Er1Ba2Cu2.73Zn0.18Fe0.09O6.94,37
Tl2Ba2Cu1O6,37
La1.81Sr0.19Cu0.98Mn0.02O4,37
La1.77Sr0.23Cu0.96Mn0.04O4,37
La1.73Sr0.27Cu0.94Mn0.06O4,37
La1.83Sr0.15Na0.02Cu1O4,37
La1.8Sr0.15Na0.05Cu1O4,37
La1.75Sr0.15Na0.1Cu1O4,37
La1.7Sr0.15Na0.15Cu1O4,37
La1.55Sr0.15Na0.3Cu1O4,37
Tb1Sr2Cu2.7Mo0.3O7.15,37
Mg0.95Al0.025Li0.025B2,37
Mg0.94Al0.06B2,37
B2Mg1,37
Mg1B1.8C0.2,37
Mg0.994Fe0.006B2,37
Sm1La0.82Sr0.18Cu1O4,37
Ba0.6K0.4Fe2As2,37
K0.4Sr0.6Fe2As2,37
Dy1Fe1As1O0.7,37
Ba0.68K0.32Fe2As2,37
Mg1B1.98C0.02,37
Mg1B1.968C0.032,37
Mg1B1.938C0.062,37
Ba0.677K0.323Fe2As2,37
Li0.8Fe1.2H1Se1O1,37
Rb1Eu1Fe4As4,37
La1.836Sr0.164Cu1O4,36.9
Ru0.975Sn0.025Sr2Gd1Cu2O8,36.9
B2Mg0.6,36.9
Sr0.875La0.125Cu1O2,36.9
La1.86Sr0.14Cu1O4,36.9
Mg1.98Mn0.02B2,36.9
Ba0.5K0.5Fe2As2,36.9
Ba0.7Rb0.3Fe2As2,36.9
Ba0.59K0.41Fe2As2,36.9
Mg1B1.8C0.2,36.8
Sr1Cs1Fe4As4,36.8
Ba0.6K0.4Fe2As2,36.8
Rb1Eu1Fe4As4,36.8
Eu1Rb1Fe4As4,36.78
Y1Ba2Cu3.92Zn0.08O8,36.7
Pb0.6Cu0.4Sr1La1Cu1O5.09,36.7
Pb0.5Cu0.5Sr1La1Cu1O5.03,36.7
Pb0.5Cu0.5Sr1La1Cu1O5.05,36.7
Ba1.2Sr0.8Yb1Cu3O6.61,36.7
Ru1Sr2Gd1Cu2O8,36.7
Mg0.99Cr0.01B2,36.7
Ba0.72K0.28Fe2As2,36.7
Sr2Mg0.3Ti0.7Fe1As1O3,36.7
Sr0.9Y0.1Cu1O2,36.6
Sr0.85Y0.15Cu1O2,36.6
La1.868Sr0.132Cu1O4,36.6
Y1Ba1.5La0.5Cu3O7.22,36.6
B2Mg1,36.6
Mg0.95Al0.05B2,36.6
Cs0.4Sr0.6Fe2As2,36.6
Y1Ba2Cu3O6.4,36.55
Eu0.75Ca0.25Rb1Fe4As4,36.54
Y0.2Ca0.4Pr0.4Ba2Cu3O7,36.5
La1.85Sr0.15Cu0.98Li0.02O4,36.5
Nd1Ba1.65La0.35O6.69,36.5
Mg1.8Cu0.2B12,36.5
Mg0.95Al0.05B2,36.5
B2Mg1,36.5
Ba0.6K0.4Fe2As2,36.5
Ba0.7K0.3Fe2As2,36.5
La1.75Sr0.25Cu0.94Ni0.06O4,36.5
Ba0.5K0.5Fe1.8Ru0.2As2,36.5
Fe1Sr2Gd1Cu2O7.58,36.5
Ca0.8La0.2Fe0.9671Co0.0329As2,36.5
Rb1Eu1Fe4As4,36.5
Eu1Rb1Fe4As4,36.5
Eu0.75Ca0.25Rb1Fe4As4,36.5
Eu0.5Ca0.5Rb1Fe4As4,36.5
Eu0.5Ca0.5Rb1Fe4As4,36.49
La1.83Sr0.17Cu1O4,36.4
Y1Ba2Cu3.92Zn0.08O8,36.4
Mg0.9Al0.05Li0.05B2,36.4
Mg1B1.7C0.3,36.4
La1.75Sr0.25Cu0.94Co0.06O4,36.4
Sr2V1Fe1As1O3,36.4
Sm1Fe1As1F0.06O0.94,36.4
Rb1Eu1Fe4As4,36.4
Eu1Rb1Fe4As4,36.375
Sm1Fe1As0.9P0.1F0.12O0.88,36.35
Ca0.79La0.21Fe1As2,36.35
Sm0.9Pr0.1Ba2Cu3O6.75,36.3
Ru0.99Ti0.01Sr2Gd1Cu2O8,36.3
Ru0.95Rh0.05Sr2Gd1Cu2O8,36.3
Mg0.95Al0.05B2,36.3
Mg1B1.85C0.15,36.3
Ba0.6K0.4Fe2As2,36.3
Ca1Rb1Fe4As4,36.26
Mg0.99Mn0.01B2,36.2
Mg1B1.9C0.1,36.2
Mg1B1.924C0.076,36.2
Mg0.97Co0.03B2,36.2
La0.7Y0.3Fe1As1F0.15O0.85,36.2
Y1Ba2Cu3.92Co0.08O8,36.2
Ca0.78Ce0.22Fe2As2,36.2
La1Fe1As1H0.46O0.54,36.2
La1.85Sr0.15Cu0.995Ni0.005O4,36.1
Mg1B1.96C0.04,36.1
Mg0.9Al0.1B2,36.1
Pr0.1La1.7Sr0.2Cu1O4,36
Y1Ba2.01Cu2.7Co0.3O6.8,36
Y1.01Ba2.01Cu2.697Fe0.303O,36
Y1Ba2Cu2.7Co0.3O7.11,36
La1.8Sr0.2Cu1O4,36
La1.825Sr0.175Cu1O4,36
Y1Ba2Cu2.7Fe0.3O7.15,36
Y2Ba4Cu7O14.04,36
Tm0.5Pr0.5Ba2Cu3O6.64,36
Bi1.95Sr1.65La0.4Cu1O4,36
Bi1.6Pb0.4Sr1.6La0.4Cu1O4,36
Hg1Ba2Cu1O4.09,36
Y0.5Pr0.5Ba1Sr1Cu3O6.9,36
Pb0.5Cd0.5Sr1.6Ba0.4Ca0.5Y0.5Cu2O7,36
Nd1.3Ba1.5Ca0.2Cu3O6.952,36
Nd1.3Ba1.5Sr0.2Cu3O6.917,36
La2Cu1O4.068,36
La1.837Sr0.162Cu1O4,36
La1.86Sr0.14Cu1O4,36
Ru1Sr2Gd1Cu2O8,36
Er1Ba2Cu2.76Zn0.24O6.89,36
La1.85Sr0.15Cu1O4.01,36
Hg0.7Mo0.3Sr2Cu1O4,36
Hg1Ba2Cu1O4.032,36
Ca2Cu1Cl2.3O2,36
La3Ca0.3Cd0.7Ba3Cu7O16.303,36
Mg1B1.924C0.076,36
Mg0.9Al0.1B2,36
Mg0.8Al0.2B2,36
Mg0.97Fe0.03B2,36
Mg1B1.8Be0.2,36
B2Mg1,36
B2Mg0.5,36
Ba0.5K0.5Fe2As2O1,36
K0.4Sr0.6Fe2As2,36
Sr0.42K0.58Fe2As2,36
Ho1Fe1As1F0.1O0.9,36
La1.822Sr0.178Cu1O4,36
Ba0.5K0.5Fe2As2,36
Fe2As2Ca6Al1.32Ti2.68O12,36
Fe2As2Ca5Sc2Ti2O10,36
Fe2As2Ca4Sc2Ti3O13,36
Fe2As2Ca5Mg1Ti3O9.5,36
Ba0.7K0.3Fe2As2,36
La1Fe1As1H0.36O0.64,36
Na0.65Fe1.93Se1.8S0.2,36
Sm1Fe1As0.77P0.23H0.2O0.8,36
Eu1Rb1Fe4As4,36
Eu0.25Ca0.75Rb1Fe4As4,36
Ca1K1Fe4As4,36
Eu0.25Ca0.75Rb1Fe4As4,35.94
Nd0.9Pr0.1Ba2Cu3O6.75,35.9
Nd1.35Ba1.65Cu3O7.02,35.9
Pb0.6Cu0.4Sr1La1Cu1O5.12,35.9
La1.8Nd0.2Cu1O4.086,35.9
Mg0.99Pb0.01B2,35.9
Mg0.98Al0.02B2,35.9
Mg0.983Al0.017B1,35.9
Y0.85Pr0.15Ba2Cu3O6.5,35.8
Bi1.8Pb0.2Sr2Ca1Cu1.84Co0.16O8,35.8
Y1Ba2Cu3O6.4,35.8
Mg0.93Al0.07B2,35.8
Mg1B1.6C0.4,35.8
Mg1B1.924C0.076,35.8
Ba0.65Rb0.35Fe2As2,35.8
Ca1K1Fe4As4,35.8
La1.8Sr0.2Cu1O4,35.7
Y1Ba2Cu3O6.45,35.7
Mg0.85Li0.15B2,35.7
La1.85Sr0.15Cu0.992Zn0.008O4,35.7
Tb1Fe1As1O0.8,35.7
C60Cs3,35.7
Ca0.7La0.3Fe1As1H1,35.7
La1.8Nd0.2Cu0.99Zn0.01O4.086,35.6
Mg0.94Li0.06B1.96C0.04,35.6
Sr0.6K0.4Fe2As2,35.6
La0.7Y0.3Fe1As1O0.6,35.6
Li0.8Fe1.2Se0.78S0.22H1O1,35.6
Ca1K1Fe4As4,35.6
Mg0.9Li0.1B2,35.55
La1.8Sr0.2Cu1H0.1O4,35.5
Y0.85Ca0.15Sr1.5Ba0.5Cu2.5B0.5O7,35.5
Bi1.95Sr1.65La0.4Cu1O6.311,35.5
Y1Ba2Cu3O6.5,35.5
Mg1B0.96C0.04,35.5
Mg0.98Pb0.02B2,35.5
Mg0.92Al0.08B2,35.5
Mg1B1.924C0.076,35.5
Mg0.99Co0.01B2,35.5
Mg1B1.96C0.04,35.5
Mg1B1.904C0.096,35.5
La1.85Sr0.15Cu1H0.1O4,35.4
La1.8Pr0.2Ca0.4Ba2Cu4.4O10.7348,35.4
Mg1B1.9C0.1,35.4
Mg1B1.924C0.076,35.4
Ba1Fe2As3,35.4
Hg1.4Tl0.6Ba2Y0.2Ca0.8Cu2O7.66,35.3
La1.8Nd0.2Cu1O4.07,35.3
Mg0.98Cr0.02B2,35.3
Mg0.89Li0.11B2,35.3
Ca1Rb1Fe1As4,35.24
Y1Ba2Cu2.79Zn0.21O7,35.2
La1.8Sr0.2Cu1O4,35.2
Ba0.4K0.6Fe2As2,35.2
Pr1Fe1As0.9P0.1F0.1O0.9,35.2
La1.85Sr0.15Cu0.995Zn0.005O4,35.1
La1.83Sr0.17Cu1O4,35.1
Mg0.97Cr0.03B2,35.1
Mg0.86Al0.14B2,35.1
Ca0.85La0.15Fe1As2,35.1
Ca8.85La1.15Pt3Fe10As18,35.1
Ca0.8La0.2Fe0.9558Co0.0442As2,35.1
Sr1Rb1Fe4As4,35.1
Ca1K1Fe4As4,35.1
Nd0.1La1.7Sr0.2Cu1O4,35
Er1Ba2Cu3O6.15,35
La1.88Ba0.12Cu1O4,35
Y0.6Pr0.4Ba2Cu3O7,35
Sr0.86Nd0.14Cu1O2,35
Y1Sr1.2Ba0.8Cu2.5B0.5O7,35
Y1Sr0.4Ba1.6Cu2.5B0.5O7,35
Nd2Ba4Cu7O15.38,35
Y1Sr2Cu2.7Ti0.3O7.224,35
Bi1.95Sr1.65Pr0.4Cu1O4,35
Bi1.95Sr1.65Nd0.4Cu1O4,35
Hg1Ba2Cu1O4.1,35
La1Sm0.8Sr0.2Cu1O4,35
Yb0.8Ca0.2Ba0.8Sr0.4Cu3O6.85,35
Nd1.3Ba1.3Sr0.4O6.828,35
Sr1.5Ba0.5Y1Cu2.8Ti0.2O7,35
La2Cu1O4.035,35
Sr0.83Nd0.17Cu1O2,35
Nd0.9Pr0.1Ba1Ca1Cu3O7,35
Y1Ba2Cu3O6.43,35
Hg0.85Re0.15Ba2Cu1O4.58,35
Ru1Sr2Y1Cu2O8,35
Ru1Sr2Eu1Cu2O8,35
Ru1Sr2Gd1Cu2O8,35
La1.825Sr0.175Cu1O4,35
Tl1Ba1.5La0.5Cu1O5,35
Y1Ba2Cu3F0.76O6,35
Lu0.55Pr0.45Ba1.7Sr0.3Cu3O6.92,35
Hg1Tl1Ba2Ca1Cu2O8,35
La1.715Nd0.125Sr0.16Cu1O4,35
La1.1Ba1.5Ca0.4Cu3O7.25,35
La1.5Ba1.4Ca0.1Cu3O6.964,35
La1.5Ba1.3Ca0.2Cu3O6.957,35
La1.665Pr0.185Sr0.15Cu1O4,35
La1.87Sr0.13Cu1O4,35
Y0.6Pr0.4Ba2Cu3O6.965,35
Sm1Ba1.85Pr0.15Cu3O7.02,35
Y1Ba2Cu3O6.4,35
Y1Ba2Cu2.95Zn0.05O6.72,35
Y1Ba2Cu2.94Zn0.06O6.73,35
La1.865Sr0.135Cu1O4,35
Y0.7Ca0.3Ba2Cu3O6.12,35
C0.7N0.3Sr2Cu1O5.35,35
Hg1Ba2Cu1O4.37,35
Eu1.4Ce0.6Sr2Ru1Cu2O10,35
Tl1Sr2Ca0.4Y0.6Cu2O7,35
La1.84Sr0.16Cu0.99Fe0.01O4,35
Ga1Sr2Y0.8Ca0.2Cu2O7,35
Ga1Sr2Y0.7Ca0.3Cu2O7,35
Ga1Sr2Y0.5Ca0.5Cu2O7,35
Mg0.94Pb0.06B2,35
Mg0.815Al0.024B2,35
C0.9S0.1,35
Mg1B1.96C0.04,35
Mg1B1.896C0.104,35
Sm0.96La0.84Sr0.2Cu1O4,35
Nd1Fe1As1F0.08O0.92,35
La1.834Sr0.166Cu1O4,35
Ba1Fe2As2,35
Ba0.5K0.5Fe2As2,35
Ba0.6K0.4Fe2As2,35
Ba0.68K0.32Fe1.954Co0.046As2,35
La1Fe1As1H0.6O0.6,35
La1Fe1As1H0.85,35
Li0.8Fe1.2Se0.72S0.28H1O1,35
Ca0.85La0.15Fe1As2,35
Eu1Cs1Fe4As4,35
Ca1Rb1Fe4As4,35
Ca1K1Fe4As4,35
La1Fe1As1H0.3O0.3,35
Ca10Pt4Fe10As18,35
Ca1K1Fe4As4,34.97
La1.855Sr0.145Cu1O4,34.9
Eu2.17Ce0.5Sr1.33Cu2.5Co0.5O9.08,34.9
Pb0.5Cu0.5Sr0.8La1.2Cu1O5.1,34.9
Y0.74Ca0.16Sr2.1Cu2.78S0.22O7,34.9
La1.95Bi0.05Cu1O4.0635,34.9
Mg0.988Fe0.012B2,34.9
C60Cs3,34.9
Y0.75Ca0.25Ba2Cu3O6.008,34.85
La1.78Sr0.22Cu1O3.945,34.8
Yb0.5Pr0.5Ba2Cu3O6.9,34.8
Pb0.6Cu0.4Sr0.8La1.2Cu1O5.11,34.8
La1.85Sr0.15Cu0.9975Zn0.0025O4,34.8
La1.8Nd0.2Cu1O4.071,34.8
Mg1B1.94C0.06,34.8
La1.85Sr0.15Cu0.9975Co0.0025O4,34.8
Tb1Fe1As1O0.75,34.8
La0.7Y0.3Fe1As1F0.1O0.9,34.8
Sr0.15La1.85Cu1O4,34.7
Ca0.2Ba1.55La1.25Cu3O7.03,34.7
La2Cu1O4.017,34.7
Hg0.85Re0.15Ba2Cu1O4.58,34.7
Mg1B1.89C0.11,34.7
Mg0.978Al0.022B2,34.7
Mg0.91Al0.09B2,34.7
La1.82Sr0.18Cu1O4,34.6
Ba0.6K0.4Fe2As2,34.6
Y0.85Ca0.15Ba2Cu2.8Zn0.2O6.74,34.6
Y1Ba2Cu3.88Zn0.12O8,34.5
Tb1Sr2Cu2.69Mo0.31O7,34.5
Mg0.98Mn0.02B2,34.5
Mg0.9Co0.1B2,34.5
Sm1Fe0.97Ni0.03As1F0.12O0.88,34.5
Ca8.6La1.4Pt3Fe10As18,34.5
Ca0.8Ce0.2Fe0.975Co0.025As2,34.5
Sr2V1Fe1As1O3,34.45
La1.85Sr0.15Cu0.995Ni0.005O4,34.41
La1.812Sr0.188Cu1O4,34.4
Er0.5Pr0.5Ba2Cu3O6.82,34.4
La1.868Sr0.132Cu1O4,34.4
La1.883Sr0.117Cu1O4,34.4
Y1Ba2Cu3O6.45,34.4
La1.87Sr0.13Cu1O4,34.4
La1.73Sr0.27Cu0.94Ni0.06O4,34.4
Nd1Ba2Cu3O6.65,34.3
La1.35Pr0.5Sr0.15Cu1O4,34.3
Mg1B1.9C0.1,34.3
La1.943Sr0.178Cu1O4,34.3
Ba0.5K0.5Fe1.92Zn0.08As2,34.3
Ba0.5K0.5Fe1.8Zn0.2As2,34.3
Ba0.47K0.53Fe2As2,34.3
Ca1K1Fe4As4,34.3
Mg1B1.7C0.3,34.27
La1.8Sr0.2Cu1O4,34.2
La1.82Nd0.03Sr0.15Cu1O4,34.2
Sm1Ba2Cu3O6.62,34.2
Mg1B1.9C0.1,34.2
Mg0.994Fe0.006B2,34.2
Mg1B1.8C0.2,34.2
Ba0.5K0.5Fe1.84Zn0.16As2,34.2
Ba0.6Na0.4Fe2As2,34.2
Mg1B1.8C0.2,34.16
La1.9Sr0.1Cu1O4,34.1
La1.85Sr0.12Ca0.016Ba0.014Cu1O3.99,34.1
Nd1Fe1As0.8P0.2F0.1O0.9,34.1
La2Cu1O4.13,34
Y2Ba4Cu7O14.16,34
Bi2Sr2Gd1.64Ce0.36Cu2O10.24,34
La1.7Sr0.3Ca1Cu2O6,34
Tl1La1Sr1Cu1O5,34
Y1Sr2Cu2.65Fe0.35O6.7,34
La1.82Sr0.18Cu1O3.994,34
La1.83Sr0.17Cu1O4,34
Y1Ba2Cu3O6.4,34
Bi2Sr8Cu4C3O21,34
Er1Ba2Cu2.28Co0.18O6.74,34
Er1Ba2Cu2.82Co0.18O6.74,34
Bi1.95Sr1.65La0.4Cu1O6.298,34
Ba1.6Sr0.4Yb1Cu3O6.53,34
Ba1.6Sr0.4Yb0.75Ca0.25Cu3O6.3,34
La2Cu1O4.03,34
La2Cu1O4.044,34
La2Cu1O4.065,34
Tl1Ba1.6La0.4Cu1O5,34
Y1Ba2Cu3O6.62,34
La1.1Ba1.5Ca0.4Cu3O6.76,34
La1.88Sr0.12Cu1O4,34
Y1Ba1Sr1Cu3O6.685,34
La1.48Pr0.37Sr0.15Cu1O4,34
Nd0.7Pr0.3Ba1Sr1Cu3O6.87,34
La1.85Ca0.15Cu1O4,34
La1.84Ca0.16Cu1O4,34
La1.83Ca0.17Cu1O4,34
Eu0.6Pr0.4Ba1.5Sr0.5Cu3O6.89,34
La0.5Ca0.2Pr0.3Ba1.5Sr0.5Cu3O6.829,34
Eu1.5Ce0.5Sr2Ru1Cu2O10,34
Ru1Sr2Gd1.4Ce0.6Cu2O9.54,34
Mg1B1.95C0.05,34
Mg0.9Pb0.1B2,34
La1.77Sr0.23Cu0.94Mn0.06O4,34
Mg0.956Al0.044B2,34
Mg1B1.9C0.1,34
Mg0.8Li0.2B2,34
Mg0.75Co0.25B2,34
Mg0.9Fe0.1B2,34
Mg1B1.6C0.4,34
Mg0.8Zn0.1Al0.1B2,34
Sm0.9La0.9Sr0.2Cu1O4,34
Ba1Fe2As2,34
La1.73Sr0.27Cu0.94Co0.06O4,34
Nd1Fe0.85Ru0.15As1F0.11O0.89,34
La1.76Sr0.24Cu0.94Mn0.06O4,34
Ba0.6Rb0.4Fe2As2,34
Ca0.34Na0.66Fe2As2,34
Ba0.72K0.28Fe2As2,34
Ba0.5K0.5Fe2As2,34
Ca0.9La0.1Fe1As2,34
Ca0.84La0.16Fe1As2,34
Sr1Fe2As1.3P0.7,34
Li0.8Fe1.2H1Se1,34
Ca0.81La0.19Fe1As2,34
Ba0.6Na0.4Fe2As2,34
La0.8Y0.2Fe1As1O0.7,34
Ca8.5La1.5Pt3Fe10As18,34
Mg1B1.9C0.1,33.98
Y0.6Pr0.4Ba2Cu3O6.8,33.9
Y0.8Pr0.2Ba2Cu3O6.5,33.9
Y0.6Pr0.4Cu2.85Re0.15O7,33.9
Pb0.6Cu0.4Sr1.1La0.9Cu1O5.07,33.9
Ca10Pt4.3Fe9.7As18,33.9
Sr1Fe2As1.4P0.6,33.9
Bi1.8Pb0.2Sr2Ca1Cu1.92Fe0.08O8,33.8
Mg0.75Li0.25B2,33.7
Ba0.6Na0.4Fe2As2,33.7
Ca10Pt5.8Fe8.2As18,33.65
La1.75Sr0.25Cu0.96Ni0.04O4,33.6
La1.95Ba0.05Cu1O4,33.6
Y0.55Pr0.45Ba2Cu3O6.98,33.6
La1.85Sr0.15Cu0.99Ni0.01O4,33.6
La1.85Sr0.15Cu0.997Fe0.003O4,33.6
La1.87Sr0.13Cu1O4,33.54
Bi2Ca2.5Nd0.5Cu2O8.43,33.5
Pr0.2Ca0.8Ba1La1Cu3O7.1,33.5
La1.85Sr0.15Cu0.97Li0.03O4,33.5
Cu0.75Re0.25Sr2Y1.3Ce0.7Cu2O9.06,33.5
Y1Ba2Cu3O6.45,33.5
La1.725Nd0.125Sr0.15Cu1O4,33.5
Mg0.82Al0.18B2,33.5
Mg0.99Sn0.01B2,33.5
Ba0.5K0.5Fe1.88Zn0.12As2,33.5
Tl0.58Rb0.42Fe1.72Se2,33.5
La1Fe1As1F0.28O0.68,33.5
Pb2Cu0.9La1.1Cu2O6.28,33.4
Mg0.8Al0.2B2,33.4
Mg0.9Al0.1B2,33.4
Ca0.25Na0.75Fe2As2,33.4
K1Ca2Fe4As4F2,33.36
La1.8Sr0.2Cu1O4,33.3
Y1Ba1.9La0.1Cu3.95Zn0.05O8,33.3
Mg0.97Mn0.03B2,33.3
Mg1B1.874C0.126,33.3
Mg1B1.6C0.4,33.3
La1.943Sr0.13Cu1O4,33.3
La1.815Sr0.185Cu1O3.964,33.2
Pb2Sr0.9La1.1Cu2O6.31,33.2
Mg0.98Ir0.02B2,33.2
La1.84Sr0.05Ca0.11Cu1O4,33.2
Ca0.88Ce0.12Fe2As2,33.2
Ba0.5Na0.5Fe2As2,33.2
La0.8Y0.2Fe1As1F0.11O0.89,33.2
K1Ca2Fe4As4F2,33.2
Mg1B1.868C0.132,33.15
La1.895Ba0.105Cu1O4,33.1
Ba0.72K0.28Fe2As2,33.1
Ba0.65Na0.35Fe2As2,33.1
Ca1K1Fe4As4,33.1
Ba0.45K0.55Fe2As2,33.1
Y1Ba2Cu2.7Fe0.3O7,33
Y1.01Ba2.03Cu2.808Li0.192O6.6,33
Gd1Ba2Cu2.7Co0.3O6.9,33
Y1Ba2Cu3O6.4,33
Eu0.1La1.7Sr0.2Cu1O4,33
Tl0.6La1Sr1Cu1.4O5,33
Cs2Rb1C60,33
Y1Sr2Cu2.7Re0.3O7.1,33
Y1Sr2Cu2.75W0.25O6.9,33
La1.82Sr0.18Cu1O3.987,33
La1.855Sr0.145Cu0.99Ni0.01O4,33
La1.9Sr0.1Cu1O4,33
Bi1.95Sr1.75La0.3Cu1O4,33
Y1Ba2Cu2.9Fe0.1O6.72,33
Nd1.3Ba1.7Cu3O6.987,33
Nd1Ba1Ca1Cu3O7,33
La1.86K0.14Cu1O3.97,33
Bi0Mo0.33Cu2.67Sr2Y1O7.41,33
La1.8Sr0.2Cu1O4,33
Y1Ba2Cu3O6.45,33
Y0.65Pr0.35Ba2Cu3O6.95,33
La1.862Sr0.138Cu1O4,33
La1.812Sr0.188Cu1O4,33
La1.835Sr0.165Cu0.995Ni0.005O4,33
La1.295Pr0.555Sr0.15Cu1O4,33
Bi2Sr1.56La0.44Cu1O6,33
La1.85Sr0.15Cu1O3.99,33
La1.82Ca0.18Cu1O4,33
C0.8N0.2Sr2Cu1O5.3,33
La0.75Ca0.05Pr0.2Ba1.5Sr0.5Cu3O6.886,33
Eu1.3Ce0.7Sr2Ru1Cu2O10,33
Y0.8Pr0.2Ba2Cu3.95Fe0.05O8,33
La1.85Sr0.15Cu0.99Fe0.01O4,33
La1.81Sr0.19Cu0.98Ti0.02O4,33
Ru1Sr2Eu1.5Ce0.5Cu2O9.6,33
Mg0.927Al0.073B1,33
Mg0.8Al0.2B2,33
Rb1Cs2C60,33
Mg1B1.84C0.16,33
Mg1B1.89C0.11,33
La1.85Sr0.15Cu0.995Ni0.005O4,33
La1.85Sr0.15Cu0.995Co0.005O4,33
Sm1Fe1As1F0.07O0.93,33
Sr2V1Fe1As1O3,33
La1.71Sr0.29Cu0.94Co0.06O4,33
K0.8Fe2Se2,33
Ca0.33Na0.66Fe2As2,33
La1.79Sr0.21Cu1O4,33
Fe2As2Ca5Sc2Ti2O10.5,33
Eu0.5K0.5Fe2As2,33
Ca0.32Na0.68Fe2As2,33
Sm1Fe1As1F0.075O0.925,33
Tl2Ba2Cu1O6,33
K1Ca2Fe4As4F2,33
Y1Ba1.9La0.1Cu3O6.5,32.9
La1.8Sr0.2Cu1O4,32.9
Mg0.8Al0.1Li0.1B2,32.9
Mg1B1.7Be0.3,32.9
Mg1B1.88C0.12,32.9
Mg0.97Fe0.03B2,32.9
Ru1Sr2Eu1Cu2O8,32.9
La1.87Sr0.13Cu0.98Li0.02O4,32.85
Ru0.95Rh0.05Sr2Gd1Cu2O8,32.85
Sm1Ba2Cu3O6.65,32.8
La1.77Sr0.23Cu0.96Ti0.04O4,32.8
Ba0.5Na0.5Fe2As2,32.8
Ca8.87La1.13Pt3Fe10As18,32.8
Ce1Fe1As1F0.1O0.9,32.8
K1Ca2Fe4As4F2,32.8
Mg0.815Al0.09B2,32.7
La1.85Sr0.15Cu0.996Zn0.004O4,32.7
Ba0.45K0.55Fe2As2,32.7
La1.85Sr0.15Cu0.993Ni0.007O4,32.6
La1.8Sr0.2Cu1O4,32.6
Sr0.7Y0.3Cu1O2,32.6
Bi1.95Sr1.65La0.4Cu1O6.28,32.6
La0.85Pr1Sr0.15Cu1O4,32.6
Nd1Fe1As1F0.2O0.8,32.6
La1.85Sr0.15Cu0.996Zn0.004O4,32.6
K0.85Fe2Se1.8,32.6
Rb0.77Fe1.61Se2,32.6
Y1Ba2Cu2.85Zn0.15O6.9,32.5
La1.8Sr0.2Cu1O4,32.5
La1.8Ba0.2Cu1O4,32.5
La1.81Sr0.15Ho0.04Cu1O4,32.5
Ru0.95Ir0.05Sr2Gd1Cu2O8,32.5
La0.8Y0.2Fe1As1O0.6,32.5
La1.73Sr0.27Cu0.94Fe0.06O4,32.5
La1.71Sr0.29Cu0.94Fe0.06O4,32.5
La1.77Sr0.23Cu0.94Co0.06O4,32.5
Eu0.51K0.49Fe2As2,32.5
Ba0.55K0.45Fe1.95Co0.05As2,32.5
La1Fe1As1H0.7,32.5
K0.83Fe1.83Se2,32.5
K0.8Fe2Se2,32.5
Ca0.86Pr0.14Fe2As2,32.5
Y1Ba2Cu2.885Zn0.195O7,32.4
La1.875Sr0.125Cu1O4,32.4
Y0.8Ca0.2Ba2Cu3O6.41,32.4
Mg0.915Al0.085B2,32.4
Mg0.75Al0.25B2,32.4
K0.8Fe1.5Se2,32.4
Rb0.796Fe1.596Se2,32.4
Rb0.801Fe1.602Se2,32.4
Rb0.74Fe1.6Se2,32.4
Rb0.8Fe1.6Se2,32.4
La1.89Ba0.11Cu1O4,32.3
La1.85Sr0.15Cu0.98Ti0.02O4,32.3
Mg0.96Mn0.04B2,32.3
Ca8.44La1.56Pt3Fe10As18,32.3
K0.8Fe2Se2,32.25
La1.92Ba0.08Cu1O4,32.2
Y1Ba1.6La0.4Cu3O7,32.2
La1.82Sr0.18Cu1O4,32.2
La1.85Sr0.09Ca0.034Ba0.026Cu1O3.99,32.2
La1.85Sr0.15Cu0.995Zn0.005O4,32.2
Ru1Sr2Gd0.9Y0.1Cu2O8,32.2
Ru0.95Ti0.05Sr2Gd1Cu2O8,32.2
K0.8Fe1.76Se2,32.2
Ca10Pt4.1Fe9.9As18,32.2
La1.855Sr0.145Cu1O4,32.2
La1.81Sr0.19Cu1O4,32.1
Y2Ba4Cu7O14.46,32.1
Mg0.9Al0.1B2,32.1
Mg0.7Li0.3B2,32.1
Sr0.2La1.8Cu0.98Mn0.02O4,32
Sm0.1La1.7Sr0.2Cu1O4,32
Y1Ba2Cu2.64Fe0.36O7,32
Y0.6Pr0.4Ba2Cu3O6.9,32
La1.78Ba0.22Cu1O4,32
Y1Ba2Cu2.64Fe0.36O7.12,32
La1.906Ba0.094Cu1O4,32
Ba0.6K0.4Bi1O3,32
La2Cu1O4.03,32
Nd1.3Ba1.7Cu3O7.14,32
La2Cu1O4.09,32
La1.875Sr0.125Cu1O4,32
Sr2Cu1C0.85B0.15O5,32
Bi1.95Sr1.75Pr0.3Cu1O4,32
Ba1K1Bi1O3,32
La2Cu1O4.08,32
La1.3Ba1.7SrCu3O6.885,32
La1.8Sr0.2Cu1O4,32
Sr1.5Ba0.5Y1Cu2.8Ga0.2O6.96,32
La2Cu1O4.005,32
H0.2La1.8Sr0.2Cu1O4,32
Pb0.6Cu0.4Sr1La1Cu1O5.15,32
Cu6.5Sr2Ca5Cr0.5O15.17,32
Ba0.63K0.37Bi1O3,32
La1.85Sr0.038Ba0.112Cu1O4,32
Y0.6Pr0.4Ba2Cu3O6.96,32
La1.88Sr0.12Cu1O4,32
Eu1.5Ce0.5Ru1Sr2Cu2O10,32
La1.9Sr0.1Cu1O3.997,32
La1.81Sr0.19Cu1O4,32
Ru1Sr2Eu1Cu2O8,32
Tl1Sr1La1Cu1O5,32
Tl1Sr0.7Ca0.3La1Cu1O5,32
Tl1Sr1La1Cu1O8,32
La2Cu1O4.04,32
La2Cu1O4.05,32
Bi2Sr1.6La0.4Cu1O6,32
La1.835Nd0.04Sr0.125Cu1O4,32
La2Cu1O4.012,32
La1.13Pr0.72Sr0.15Cu1O4,32
La0.925Pr0.925Sr0.15Cu1O4,32
La1.87Sr0.13Cu1O4,32
Y0.4Pr0.6Ba2Cu4O8,32
Gd1Ba1.5Sr0.5Cu3O6.72,32
Er1Ba2Cu2.7Zn0.3O6.86,32
Er1Ba2Cu2.67Zn0.24Fe0.09O6.94,32
La1.86Ca0.14Cu1O4,32
La1.81Ca0.19Cu1O4,32
Eu1Ba1.2Pr0.3Sr0.5Cu3O6.89,32
Eu0.9Sr0.1Ba1.6Pr0.1Cu3O6.58,32
Eu1.6Ce0.4Sr2Ru1Cu2O10,32
La1.81Ho0.04Sr0.15Cu1O4,32
Pb0.5Sr1.75Nd0.25Eu1.5Ce0.5Cu2.5O9,32
Mg1B1.834C0.166,32
Mg0.988Fe0.012B2,32
Mg0.7Al0.15Li0.15B2,32
Mg0.815Al0.092B2,32
Mg1B1.8C0.2,32
Mg0.75Fe0.25B2,32
Eu0.5K0.5Fe2As2,32
Ba0.6K0.4Fe2As2,32
Ba0.5K0.5Fe2As2,32
Ba0.55K0.45Fe2As2,32
C1,32
La0.8Y0.2Fe1As1F0.1O0.9,32
Nd2Cu1O4,32
K0.68Fe1.79Se2,32
K0.8Fe2Se2,32
K0.82Fe1.63Se2,32
Tl0.47Rb0.34Fe1.63Se2,32
K0.65Fe1.41Se2,32
Rb0.88Fe1.81Se2,32
Tl0.4Rb0.4Fe1.6Se2,32
K0.86Fe1.66Se2,32
Rb2Fe4Se5,32
Rb0.8Fe1.68Se2,32
K0.74Fe1.67Se1.61S0.4,32
Tb1Fe1As1O0.8,32
Fe2As2Ca6Al1Ti3O11,32
K0.8Fe1.933Mn0.067Se2,32
K0.8Fe1.7Se2,32
K0.8Fe1.78Se2,32
Tl0.6Rb0.4Fe1.67Se2,32
Ba0.74K0.26Fe2As2,32
Li0.8Fe1.2Se0.59S0.41H1O1,32
Na0.65Fe1.93Se1.6S0.4,32
Rb0.8Fe1.7Se2,32
Eu0.7Na0.3Fe2As2,32
La1Fe1As1H0.58O0.58,32
Rb0.75Fe1.6Se2,32
Ca10Pt4.5Fe9.5As18,32
Ba1Fe2As0.64P1.36,32
Pb0.5Cu0.5Sr1La1Cu1O5.1,31.9
La1.85Sr0.15Cu0.995Zn0.005O4,31.9
Sr0.85La0.15Cu1O2,31.9
K0.58Fe1.56Se2,31.9
K0.8Fe1.951Mn0.049Se2,31.9
Sm1.39Ba1.61Cu3O7.07,31.8
Ba1K1Bi1O3,31.8
Ba0.65K0.35Bi1O3,31.8
La1.9Sr0.1Cu1O4,31.8
La1.75Nd0.1Sr0.15Cu1O4,31.8
La1.81Sr0.19Cu0.94Co0.06O4,31.8
La1.79Sr0.21Cu0.94Co0.06O4,31.8
Tl0.4Rb0.4Fe1.67Se2,31.8
Ca8.48Pr1.52Pt3Fe10As18,31.8
Ba0.72K0.28Fe2As2,31.8
La0.8Y0.2Fe0.999Mn0.001As1F0.11O0.89,31.8
Rb0.8Fe1.7Se2,31.75
Rb0.8Fe2Se2,31.75
La1.842Nd0.008Sr0.036Ba0.114Cu1O4,31.7
La1.75Nd0.1Sr0.15Cu1O4,31.7
La1.85Sr0.15Cu0.985Ni0.015O4,31.7
La1.842Nd0.008Sr0.036Ba0.114Cu1O3.98,31.7
La1.875Ba0.04Sr0.085Cu1O4,31.7
Ca0.719La0.281Fe2As2,31.7
La1.9Sr0.1Cu1O4,31.6
Pb0.6Cu0.4Sr0.9La1.1Cu1O5.18,31.6
La1.798Nd0.052Ca0.15Cu1O4,31.6
La1.883Sr0.117Cu1O4,31.6
La1.798Nd0.052Ca0.15Cu1O3.96,31.6
Mg0.92Al0.08B2,31.6
Ca1Cs1Fe4As4,31.6
Ba0.6K0.4Bi1O3,31.5
Y1Ba2Cu3.84Zn0.16O8,31.5
Cu0.75W0.25Sr2Y1.3Ce0.7Cu2O8.81,31.5
Y1Ba2Cu3O6.45,31.5
Tl1Sr2Ca1Cu2O6.837,31.5
Ba0.61K0.39Bi1O3,31.5
Mg0.85Al0.15B2,31.5
Mg0.5Co0.5B2,31.5
Sr4V2Fe2As2O6,31.5
La1.77Sr0.23Cu0.94Ni0.06O4,31.5
Tl0.58Rb0.42Fe1.72Se2,31.5
Eu0.5K0.5Fe2As2,31.5
K0.8Fe1.97Mn0.03Se2,31.5
La1.8Sr0.2Cu1O4,31.4
Nd0.8Pr0.2Ba2Cu3O7,31.4
Ba0.6K0.4Bi1O3,31.4
La0.65Pr1.2Sr0.15Cu1O4,31.4
La0.5Y0.5Fe1As1F0.1O0.9,31.4
K0.73Fe1.44Se1.68S0.32,31.4
Mg1B1.9C0.1,31.4
Tl0.4Rb0.4Fe1.7Se2,31.35
Tl0.4Rb0.4Fe2Se2,31.35
Pb2Cu0.9La1.1Cu2O6.24,31.3
Rb2Cs1C60,31.3
Nd1.8Cu1O4,31.3
Ce1Fe1As1H0.07O0.93,31.3
Sm1Fe0.97Mn0.03As1F0.12O0.88,31.3
Sm1Fe0.965Mn0.035As1F0.11O0.89,31.3
La1.83Sr0.17Cu0.99Ni0.01O4,31.2
Ba0.6K0.4Bi1O3,31.2
Ba0.595K0.405Bi1O3,31.2
Bi2Sr1.6La0.4Cu1O6.36,31.2
Mg0.99Fe0.01B2,31.2
La0.8Y0.2Fe0.998Mn0.002As1F0.11O0.89,31.2
La1.92Ba0.08Cu1O4,31.1
La1.812Nd0.038Sr0.026Ba0.124Cu1O4,31.1
Y1Ba2Cu3O6.5,31.1
La1.875Ba0.005Sr0.12Cu1O4,31.1
La1.83Sr0.17Cu0.99Ru0.01O4,31.1
K0.86Fe2Se1.82,31.1
Rb0.8Fe2Se2,31.05
Y1Ba2Cu2.6Fe0.4O7,31
La1.85Sr0.15Cu0.996Zn0.004O4,31
Cs1Rb2C60,31
La1.88Sr0.12Cu1O4,31
La1.9Sr0.1Cu1O4,31
Tl0.7Pb0.3Ca1Sr2Cu2O7,31
Bi2Sr2Ca0.5Y0.5Cu2I1O8,31
La1.8Sr0.2Cu1O4,31
La1.96Na0.4Cu1O4,31
Pb2Sr2Y1Cu3O8,31
Er1Ba2Cu2.76Co0.24O6.75,31
Sr2Cu1C0.86B0.14O5,31
Pb0.6Cu0.4Sr1.1La0.9Cu1O5.12,31
Ba0.59K0.41Bi1O3,31
Bi0.066Mo0.264Cu2.67Sr2Y1O7.32,31
Y1Ba2Cu3.928Zn0.072O8,31
Dy1Ba2Cu2.6Ni0.4O6.83,31
La1.865Sr0.135Cu1O4,31
La1.905Ba0.095Cu1O4,31
Ru0.6Sn0.4Sr2Gd1Cu2O8,31
La1.885Sr0.115Cu1O4,31
La1.875Sr0.125Cu1O4,31
C0.8N0.2Sr2Cu1O5.35,31
C0.8N0.2Sr2Cu1O5.45,31
C0.7N0.3Sr2Cu1O5.45,31