formula,Tc
La1Fe1As1F0.05O0.95,25.5
La0.89Sr0.11Fe1As1O1,25.5
Cs0.86Fe1.66Se2,25.5
La1Fe0.98Zn0.02As1F0.1O0.9,25.5
Rb0.8Fe2Se1.7Te0.3,25.5
La1Fe0.8Zn0.2As1F0.15O0.85,25.5
La0.4Na0.6Rb1Fe4As4,25.5
Y0.6Pr0.4Ba2Cu3O6.66,25.4
La1.85Sr0.016Ca0.074Ba0.06Cu1O4.01,25.4
La1Fe1As1F0.05O0.95,25.4
La0.85Sr0.15Fe1As1O1,25.4
Ba1Fe1.8Co0.2As2,25.4
La1Fe1As1F0.13O0.87,25.4
La1Fe0.95Zn0.05As1F0.1O0.9,25.4
Y1Ba2Cu3.9Zn0.1O8,25.3
La1.843Ba0.157Cu1O4,25.3
Mg0.815Al0.185B2,25.3
Li1Hf1N1Cl1,25.3
Ba0.8K0.2Fe2As2,25.3
Ba1Fe2As1.18P0.82,25.3
La0.8Y0.2Fe0.99Mn0.01As1F0.11O0.89,25.3
La1Fe1P0.6As0.8F0.1O0.9,25.3
Nd1.55La0.3Ce0.15Cu1O4,25.2
La1.9Sr0.1Cu1O4,25.2
Pb0.6Cu0.4Sr0.8La1.2Cu1O5.29,25.2
Pb0.5Cu0.5Sr0.8La1.2Cu1O5.25,25.2
Y0.7Pr0.3Ba2Cu3O6.75,25.2
Pr0.91La1Ce0.09Cu1O4,25.2
La1.85Sr0.15Cu0.99Co0.01O4,25.2
La1Fe1As1F0.07O0.93,25.2
Ba1Fe1.9Pt0.1As2,25.2
Eu0.7Na0.3Fe2As1.4P0.6,25.2
La1Fe1As1F0.1O0.9,25.2
Nd1Fe1As0.5P0.5F0.1O0.9,25.2
Y0.77Ca0.23Ba2Cu3O6,25.15
Y1Ba2Cu3.92Ni0.08O8,25.1
Ca0.2Ba1.55La1.25Cu3O7.01,25.1
Bi1.95Sr1.65La0.4Cu1F0.6O5.6,25.1
Pb0.6Cu0.4Sr1La1Cu1O5.19,25.1
Pb0.6Cu0.4Sr1La1Cu1O5.21,25.1
La1.8Nd0.2Cu1O4.0641,25.1
Mg0.7Al0.15Li0.15B2,25.1
Mg0.7Li0.15Al0.15B2,25.1
Pr4Fe2As2Te0.88O4,25.1
Na0.65Fe1.93Se1.4S0.6,25.1
La1Fe1As1F0.1O0.9,25.1
Rb0.8Fe2Se1.8Te0.2,25.05
Ca0.73La0.27Fe1As2,25.05
La1.84Sr0.16Cu0.987Ni0.013O4,25
Y0.8Pr0.2Ba2Cu2.7Fe0.3O7.1,25
Bi1.4Pb0.6Sr1.4Ca1Nd0.6Cu2O8.22,25
Pb0.5Sr1.8Ba0.2Y0.85Ca0.15Cu2.5O6.98,25
Nd2Cu1F0.3O3.7,25
Y1Ba2Cu2.775Zn0.225O6.93,25
Y1Sr1Ba1Cu2.5B0.5O7,25
Sr2Cu1C0.92B0.08O5,25
Tl3Cr1Sr8Cu4O20,25
Sr1.5Ba0.5Y1Cu2.8Ge0.2O7,25
Pb0.6Cu0.4Sr1.1La0.9Cu1O5.19,25
Ba1.6Sr0.4Yb0.75Ca0.25Cu3O6.19,25
Y0.74Ca0.16Sr2.1Cu2.78S0.22O7,25
La1.92Ba0.08Cu1O4,25
Sm1La0.8Sr0.2Cu1O3.94,25
La2.3Yb0.1Ba2.3Ca0.2Cu5O11.805,25
La1.913Sr0.087Cu1O4,25
La1.01Pr0.85Sr0.14Cu1O4,25
Tl1Ba0.3Sr0.7La1Cu1O5.11,25
La1.4Ba1.5Ca0.1Cu3O6.903,25
La1.5Ba1.4Ca0.1Cu3O6.932,25
La1.5Ba1.3Ca0.2Cu3O6.918,25
La1.5Ba1.1Ca0.4Cu3O6.764,25
La1.825Sr0.175Cu0.985Ni0.015O4,25
Y1Ba2Cu3.925Zn0.075O8,25
La1.83Sr0.17Cu0.99Zn0.01O4,25
La1.82Sr0.18Cu0.99Zn0.01O4,25
Y1Ba1.75Cu2.75Co0.25O6.95,25
Er1Ba2Cu2.76Zn0.06Fe0.18O6.97,25
Y1Ba2Cu2.95Zn0.05O6.63,25
Y1Ba2Cu2.95Zn0.05O6.69,25
Y1Ba2Cu2.95Zn0.05O6.7,25
Tl2Ba2Cu1O6,25
Y1Ba2Cu2.94Zn0.06O6.68,25
Y1Ba2Cu2.91Zn0.09O6.73,25
La1.25Ca0.15Nd0.6Cu1O4,25
Nd1.5Ce0.5Sr2Ta1Cu2O10,25
Ba0.557K0.443Bi1O3,25
Nd1.85Ce0.15Cu1O4.014,25
La1.89Ce0.11Cu1O4,25
Ga1Sr2Y0.7Ca0.3Cu2O7,25
Ca1.875Na0.125Cu1Cl2O2,25
Ca1.85Na0.15Cu1Cl2O2,25
Ba1.34Eu2Ce0.66Cu3O9.02,25
Y0.38Ba1.74La0.88Cu3O6.95,25
Ca1,25
Mg0.8Al0.2B2,25
La1.425Nd0.4Sr0.175Cu1O4,25
Bi0.1Pb0.4La1.3Sr1.2Cu2O5.83,25
Bi0.1Pb0.4La1.4Sr1.1Cu2O5.84,25
La1.925Ce0.075Cu1O4,25
La1Fe1As1F0.11O0.89,25
La1Fe0.9875Co0.0125As1F0.11O0.89,25
La1.782Sr0.218Cu1O4,25
La1.9Sm0.1Cu1O4,25
La1.7Sm0.3Cu1O4,25
Ba1Fe1.85Co0.15As2,25
Eu1Fe2As2,25
Ca0.4Na0.6Fe2As2,25
Sr1Fe2As1.4P0.6,25
Ca1.843Na0.157Cu1Cl2O2,25
La1Fe1As1O0.85,25
Ba1Fe1.87Co0.13As2,25
Ba1Fe1.89Co0.11As2,25
La1Fe1As1F0.2O0.8,25
Eu1Fe2As1.7P0.3,25
Pr4Fe2As2Te0.88O4,25
Sm4Fe2As2Te0.92O4,25
Gd4Fe2As2Te0.9O4,25
Ca0.79La0.21Fe1As2,25
Ca8.03Pr1.97Pt3Fe10As18,25
Ca9.06Gd0.94Pt3Fe10As18,25
Mg0.3Hf1N1Cl1,25
La1Fe0.99975Mn0.00025As1F0.11O0.89,25
Ba1Fe2As1.34P0.66,25
La0.9Y0.1Fe0.995Mn0.005As1F0.11O0.89,25
La0.8Y0.2Fe0.992Mn0.008As1F0.11O0.89,25
Pb0.5Cu0.5Sr0.9La1.1Cu1O5.22,24.9
La1.89Ce0.11Cu1O4,24.9
Mg1B1.6C0.4,24.9
Ba1Fe1.886Rh0.114As2,24.9
La0.8Sr0.2Fe1As1O1,24.9
La1.943Sr0.115Cu1O4,24.9
La1Fe1As1F0.05O0.95,24.9
Sr1Fe2As1.22P0.78,24.9
Bi1Ga1Sr1.8Ca1.2Cu2O8,24.8
Ca0.4Ba1.35La1.25Cu3O6.95,24.8
La1Fe1As1F0.05O0.95,24.8
Ba1Fe1.85Co0.15As2,24.8
Sr2V1Fe1As1O3,24.8
Ba0.78K0.22Fe2As2,24.8
Ba0.35K0.65Fe2As2,24.8
As3Pd5,24.761
La1.85Sr0.15Cu0.992Fe0.008O4,24.73
La1.855Sr0.145Cu0.99Zn0.01O4,24.7
La1.885Sr0.115Cu1O4,24.7
Sm1Fe1As1F0.13O0.87,24.7
La1.78Sr0.22Cu1O4,24.6
Hg1Ba2Cu1O4.39,24.6
Sm1La0.8Sr0.2Cu1O3.94,24.6
Pr0.89La1Ce0.11Cu1O4,24.6
La1.825Ba0.175Cu1O4,24.6
La0.9Sr0.1Fe1As1O1,24.6
La1.943Sr0.089Cu1O4,24.6
La1Fe0.4Zn0.6As1F0.15O0.85,24.6
Ba1Fe2As1.34P0.66,24.6
La1.8Sr0.2Cu0.99Ni0.01O4,24.5
Nd2Cu1F0.22O3.78,24.5
Cu0.75V0.25Sr2Y1.3Ce0.7Cu2O8.77,24.5
La1.89Sr0.11Cu1O4,24.5
La1.05Ca0.15Nd0.8Cu1O4,24.5
Mg0.764Au0.236B2,24.5
Nd1.85Ce0.15Cu1O4,24.5
Ba1Fe1.6Ir0.4As2,24.5
K0.8Fe1.7S1Se1,24.5
Ba1Fe2As1.46P0.54,24.5
Ba0.39K0.61Fe2As2,24.5
Yb0.7Ca0.3Ba1.6Sr0.4Cu3O6.78,24.4
La1.91Sr0.09Cu1O4,24.4
Rb2K1C60,24.4
Sr0.8La0.2Fe1As1F1,24.4
Ba0.77K0.23Fe2As2,24.4
Ho0.5Pr0.5Ba2Cu3O6.67,24.3
Nd1.85Ce0.15Cu1O4,24.3
La1.895Ce0.105Cu1O4,24.3
La1.88Ce0.12Cu1O4,24.3
La1Fe1As1F0.15O0.85,24.3
Ba1Fe1.885Co0.115As2,24.3
La1Fe1As1F0.1O0.9,24.3
Ba1Fe2As0.9P1.1,24.3
La1.9Sr0.1Cu1O4,24.25
La1Fe1As0.4P0.6F0.05O0.95,24.24
Nd1.5Ce0.5Sr2Cu2Nb1O10,24.2
La1.82Ba0.18Cu1O4,24.2
Y1Ba2Cu2.79Zn0.21O7,24.2
La1.95Bi0.05Cu0.99Zn0.01O4.0628,24.2
Pr1.85Ce0.15Cu1O4,24.2
Ru0.6Sn0.4Sr2Eu1Cu2O8,24.2
Sr1Fe1.57Ir0.43As2,24.2
Ba0.3Na0.7Fe2As2,24.2
Li0.8Fe1.2Se0.47S0.53H1O1,24.2
La1.85Sr0.15Cu0.99Ga0.01O4,24.1
Y0.4Pr0.6Ba1Sr1Cu3O8.9,24.1
Pb0.5Cu0.5Sr1La1Cu1O5.19,24.1
Li1Hf1N1Br1,24.1
La0.9Y0.1Fe0.995Mn0.005As1F0.11O0.89,24.1
Nd1.85Ce0.15Cu1O3.93,24
Ba0.5K0.5Bi1O3,24
Bi2Sr2Ho1.64Ce0.36Cu2O10.22,24
Nd1.85Ce0.15Cu1O4,24
Bi1Pb1Sr1.2La0.2Cu1O6,24
La1Ba1Ca1Cu2.6Ni0.4O6.854,24
Sr0.84Nd0.16Cu1O2,24
Y1Sr2Cu2.7W0.3O6.9,24
Y1Sr1.4Ba0.6Cu2.5B0.5O7,24
Bi1.95Sr1.45La0.6Cu1O4,24
Tl1.7Ba2Cu1O6,24
Eu1.5Ce0.5Sr2Cu2Nb1O10,24
La1.65Sm0.15Sr0.2Cu1O4,24
Y0.8Ca0.2Ba2Cu3O6,24
Ca0.85K0.15Cu1Cl2O2,24
Ca1.8K0.2Cu1Cl2O2,24
Ca0.75K0.25Cu1Cl2O2,24
Ca1.7K0.3Cu1Cl2O2,24
Nd1.32Sr0.41Ce0.27Cu1O4,24
Bi1.95Sr1.65La0.4Cu1O6.347,24
Cu0.75Co0.25Sr2Y1.3Ce0.7Cu2O8.43,24
Pb0.5Tl0.5Sr4Cu2C0.5N0.5O10,24
La1.85Sr0.03Ca0.066Ba0.054Cu1O4,24
Al1Sr2Ho0.4Ca0.6Cu2O7,24
Tl1Sr2Ca1Cu2O6.85,24
Sm1La0.8Sr0.2Cu1O4,24
Tl1Ba1.4La0.6Cu1O5,24
Hg0.5Fe0.5Sr2Y0.7Ca0.3Cu2O6.7,24
Sm1Ba2Cu2.7Ni0.3O6.97,24
La1.92Sr0.08Cu1O4,24
La1.825Sr0.175Cu1O4,24
La1.815Sr0.185Cu0.99Zn0.01O4,24
Y1Ba2Cu2.919Zn0.081O6.8,24
Bi2Sr1.76La0.24Cu1O6,24
Y1Ba2Cu2.95Zn0.05O6.56,24
La1.88Ca0.12Cu1O4,24
La0.8Pr0.2Ba1.5Sr0.5Cu3O6.906,24
Pr0.85La1Ce0.15Cu1O4,24
Pr1.85Ce0.15Cu1O4,24
Ca2Cu1Cl2.18O2,24
Ca1.65Na0.35Cu1Br1Cl1O2,24
Mg1B0.85C0.15,24
Pr0.91La1Ce0.09Cu1O4,24
La1.79Sr0.21Cu0.97Ru0.03O4,24
Y1Pd4.2B3C0.3,24
K2Cs1C60,24
Mg0.71Al0.29B2,24
Mg1B1.85C0.15,24
Bi0.3Pb0.2La1.5Sr1Cu2O5.94,24
La1.925Ba0.075Cu1O4,24
Pr0.88La1Ce0.12Cu1O3.934,24
Ba1Fe1.878Co0.122As2,24
Ba1Fe1.8Co0.2As2,24
Ba0.77K0.23Fe2As2,24
La1Fe1As1O0.85,24
Eu0.5Ca0.5Fe2As2,24
La1Fe0.9875Co0.0125As1F0.11O0.89,24
Fe1.8Co0.2As2Sr4Mg1Ti1O6,24
Hf1N1Cl0.7,24
Ca0.81Nd0.19Fe1As1.98Sb0.02,24
Sr2V1Fe1As1O3,24
La1Fe1As0.4P0.6F0.05O0.95,24
Ba0.737K0.263Fe2As2,24
Rb0.75Fe1.6Se1.75S0.25,24
Ba0.3Na0.7Fe2As2,24
La0.4Cs0.6Rb1Fe4As4,24
Ba1Fe2S3,24
Y1Ba2Cu3O6.38,23.9
Pr1.85Ce0.15Cu1O4,23.9
La1Fe0.2Zn0.8As1F0.15O0.85,23.9
La1Fe1As1H0.4O0.6,23.9
Ca0.8La0.2Fe0.98Co0.02As2,23.89
La1.85Sr0.15Cu0.965Ni0.035O4,23.8
Ca1Fe0.9Co0.1As1F1,23.8
Ba0.7Na0.3Fe2As2,23.8
Ba0.68Na0.32Fe2As2,23.8
La1.9Sr0.1Cu0.9975Zn0.0025O4,23.71
La1.85Sr0.15Cu0.98Ni0.02O4,23.7
Y0.6Pr0.4Ba2Cu3O6.76,23.7
La1.8Nd0.05Ca0.074Ba0.076Cu1O4.01,23.7
La1Fe1As1F0.1O0.9,23.7
La1.85Sr0.15Cu0.988Zn0.012O4,23.7
La1Fe0.9Ru0.1As1F0.11O0.89,23.7
Ca9.16Tb0.84Pt3Fe10As18,23.7
Nd1.85Ce0.15Cu1O4,23.6
La1.877Ba0.123Cu1O4,23.6
La1.8Sr0.2Cu0.9883Zn0.0117O4,23.6
La1.9Sr0.1Cu0.9975Zn0.0025O4,23.6
Pr1.85Ce0.15Cu1O4,23.6
Pr1.96Ce0.04Cu1O4,23.6
Li1Hf1N1Cl0.75Br0.25,23.6
Ba0.8K0.2Fe2As2,23.6
La1Fe0.9Ru0.1As1F0.11O0.89,23.6
La1Fe0.85Ru0.15As1F0.11O0.89,23.6
La1Fe1As0.9P0.1F0.05O0.95,23.6
Y1Ba2Cu3O6.34,23.5
La1.801Ba0.199Cu1O4,23.5
Y0.7Zn0.3Ba2Cu3O7,23.5
Y0.55Pr0.45Ba2Cu3O6.8,23.5
Ba0.5K0.5Bi1O3,23.5
La1.85Sr0.016Ca0.074Ba0.06Cu1O4,23.5
Ba0.6K0.4Bi0.979Pr0.021O3,23.5
Ru1Sr2Gd0.91Nd0.09Cu2O8,23.5
Ru1Sr2Eu1Cu2O8,23.5
La1.87Ce0.13Cu1O4,23.5
Ca1.7Na0.3Cu1Br1Cl1O2,23.5
Mg0.8Al0.2B2,23.5
Ba1Fe1.874Co0.126As2,23.5
Ce1Fe0.95Co0.05As1F0.1O0.9,23.5
Fe2As2Sr4Mg0.9Ti1.1O6,23.5
Nb0.7Fe1.55Se1.01S0.99,23.5
Ba0.78K0.22Fe2As2,23.5
Eu1Fe1.6As2P0.4,23.5
Ca1.85Na0.15Cu1Cl2O2,23.45
La1.8Sr0.2Cu0.99Ni0.01O4,23.4
La1.93Ba0.07Cu1O4,23.4
Sm0.8Pr0.2Ba2Cu3O6.75,23.4
La1.8Ba0.2Cu1O4,23.4
Ba1Fe1.85Pt0.15As2,23.4
Ba1Fe1.874Co0.126As2,23.4
Sm1Fe1As0.5P0.5O1,23.4
Ba1Fe1.852Co0.148As2,23.4
Pr1Fe1As0.6P0.4F0.1O0.9,23.4
Ba0.77K0.23Fe2As2,23.4
Y0.5Pr0.5Ba2Cu3O7,23.36
Y1Ba2Cu3O6.4,23.35
Y1Pd5B3C0.3,23.32
Ba1K1Bi1O3,23.3
Pr1.85Ce0.15Cu1O4,23.3
La1Fe1As1F0.05O0.95,23.3
Ba1Fe1.884Co0.116As2,23.3
Sm1Fe0.95Zn0.05As1F0.2O0.8,23.3
Ba0.5K0.5Fe1.96Mn0.04As2,23.3
Sr1Fe2As1.3P0.7,23.3
Ba0.9Rb0.1Fe2As2,23.3
Ba1Fe2As1.52P0.48,23.3
Ca8.9La1.1Pt3Fe10As18,23.3
Ba1Fe1.864Rh0.136As2,23.3
K1Ca2Fe4As4F2,23.3
Bi2Sr1.6La0.4Cu1O6.32,23.2
Pr1.85Ce0.15Cu1O4,23.2
Rb2.7Tl2.2C60,23.2
Mg0.98Mn0.02B2,23.2
La1.85Sr0.15Cu0.989Zn0.011O4,23.2
Ca1Fe0.88Co0.12As1H1,23.2
Ba1Fe2As1.34P0.66,23.2
La1.85Sr0.15Cu0.992Co0.008O4,23.1
Bi2Sr1.6Nd0.4Cu1O6.32,23.1
Sm0.7Pr0.3Ba2Cu3O6.95,23.1
Ba0.542K0.458Bi1O3,23.1
La0.8Na0.2Fe1As1F0.2O0.8,23.02
Ba0.65K0.35Bi1O3,23
La1.775Sr0.225Cu1O4,23
Y1Ba2Cu2.94Ni0.06O6.47,23
Nd1.25La0.6Ce0.15Cu1O4,23
Bi1.6Pb0.4Sr1.6La0.4Cu1O6.082,23
Sm1.5Ce0.5Sr2Cu2Nb1O10,23
Eu1.5Ce0.5Sr2Cu2Nb1O10,23
Y0.3Pr0.7Ba2Cu4O8,23
Y1Sr2Cu2.7Ti0.3O7.152,23
Y1Ba2Cu2.9Zn0.1O6.93,23
Sr1.6K0.4Cu1C1O5,23
Y0.4Pr0.6Ba0.75Sr1.25Cu3O6.92,23
Tl1Sr2Ca1Cu2O6.52,23
Sr2Cu1C0.93B0.07O5,23
Bi1.95Sr1.65La0.4Cu1O6.36,23
Ba1.6Sr0.4Yb0.75Ca0.25Cu3O6.19,23
Tl0.5Pb0.5Sr4Cu2C7.75O23.25,23
La1.562Nd0.288Ca0.106Ba0.044Cu1O4,23
Ba1K1Bi1O4,23
Ba0.54K0.46Bi1O3,23
La1.85Nd0Ca1.15Cu2O5.99,23
Sr2Y1Ru0.8Cu0.2O6,23
La1.788Sr0.213Cu1O4,23
Nd1Ba2Cu2.85Ga0.15O6.62,23
Y1Ba2Cu2.94Zn0.06O6.7,23
Y1Ba2Cu2.91Zn0.09O6.75,23
Nd2Cu1F0.4O4,23
La1Cu1O4,23
La1.9Sr0.1Cu1O4,23
Er1Ba2Cu2.7Zn0.12Fe0.18O6.95,23
Y1Ba2Cu2.95Zn0.05O6.52,23
La0.85Ca0.15Nd1Cu1O4,23
La1.89Ca0.11Cu1O4,23
La1.885Ca0.115Cu1O4,23
La1.562Nd0.288Ca0.106Ba0.044Cu1O3.98,23
Mo1Sr2Eu1.5Ce1Cu2O10,23
Pr1.85Ce0.15Cu1O4,23
Ru0.9Sr2Er1Cu2O7.8,23
Y0.4Pr0.6Ba1Sr1Cu3O7,23
Ca1.825Na0.175Cu1Br1Cl1O2,23
Y1Pd5B3C0.3,23
K2Rb1C60,23
Na0.28Hf1N1Cl1,23
La1Fe1As1F0.11O0.89,23
Ba1Fe1.852Co0.148As2,23
Ca1Fe0.9Co0.1As1F1,23
Sr1Fe2As2,23
Ba1Fe1.68Ru0.32As2,23
La1Fe1As1F0.1O0.9,23
Ba1Fe1.9Pt0.1As2,23
Eu0.5K0.5Fe1.94Ni0.06As2,23
Pr2Ba4Cu7O14.21,23
Ca1Fe0.93Co0.07As1H1,23
Ce1Fe0.93Co0.07As1H1,23
Ce1Fe0.91Co0.09As1H1,23
Ce1Fe0.88Co0.12As1H1,23
Rb1Eu1Fe3.8Ni0.2As4,23
Nd1.85Ce0.15Cu1O4,22.9
La1.922Ba0.078Cu1O4,22.9
Nd1.86Ce0.14Cu1O4,22.9
Gd1Ba1.7Pr0.3Cu3O7.06,22.9
Mg0.8Al0.2B2,22.9
La1.85Sr0.15Cu0.9875Co0.0125O4,22.9
Ba1Fe1.85Co0.15As2,22.9
La1Fe1As1F0.11O0.89,22.9
La1.9Sr0.1Cu1O4,22.9
La1.83Sr0.17Cu0.98Ni0.02O4,22.8
B2Mg1,22.8
La1Fe1As1F0.1O0.9,22.8
Ba1Fe1.884Co0.116As2,22.8
La1.85Sr0.15Cu0.983Zn0.017O4,22.8
Tb1Fe1As1O0.9,22.8
Na0.28Hf1N1Cl1,22.8
Ba1Fe1.852Co0.148As2,22.8
Ba0.82K0.18Bi0.53Pb0.47,22.8
La1Fe1As1F0.08O0.92,22.8
La1Fe0.9997Mn0.00025As1F0.11O0.89,22.8
La1.95Bi0.05Cu0.99Zn0.01O4.093,22.7
Sm1.86Ce0.14Cu1O4,22.7
Li1Hf1N1Cl0.525Br0.475,22.7
Ba1Fe1.884Co0.116As2,22.7
Ca1Fe0.91Co0.09As1H1,22.7
Ba0.86La0.14Fe2As2,22.7
La0.8Y0.2Fe0.992Mn0.008As1F0.11O0.89,22.7
La1.85Sr0.15Cu0.975Ni0.025O4,22.6
Bi2Sr1.3La0.7Cu1O6.422,22.6
La1.84Sr0.16Cu1O4,22.6
La1.934Ba0.066Cu1O4,22.6
Nd1.84Ce0.16Cu1O4,22.6
Y1Pd2B2C1,22.6
Li1Hf0.7Zr0.3N1Cl1,22.6
Ba0.84Rb0.1Sn0.09Fe2As2,22.6
Ca9.26Ce0.74Pt3Fe10As18,22.6
Nd1Fe1As0.4P0.6F0.1O0.9,22.6
La1Fe0.99975Mn0.00025As1F0.11O0.89,22.6
Y1Ba2Cu3O6.41,22.5
Nd1.847Ce0.153Cu1O4,22.5
Nd1.85Th0.15Cu1O4,22.5
Y1Ba2Cu3.7Zn0.3O8,22.5
La1.45Nd0.4Sr0.15Cu1O4,22.5
Ba0.55K0.45Bi1O3,22.5
Pr1.85Ce0.15Cu1O4,22.5
Nd1.85Ce0.15Cu1O4,22.5
La1.91Ce0.09Cu1O4,22.5
Ba1Fe1.852Co0.148As2,22.5
Ba1Fe1.125Ru0.875As2,22.5
La1.85Sr0.15Cu0.982Ni0.018O4,22.5
Ca10Pt4.6Fe9.4As18,22.5
Ca4Al2Fe2As1.6P0.4O6,22.5
Ba1Fe1.86Co0.14As2,22.5
La1.885Sr0.115Cu0.9975Zn0.0025O4,22.46
La1.92Sr0.08Cu1O4,22.4
Y1Ba2Cu3.9Zn0.1O8,22.4
Pr1.85Ce0.15Cu0.96V0.04O3.98,22.4
Ba1Fe2As1.28P0.72,22.4
Tl1Fe1.7Se2,22.4
Ba1Fe1.86Co0.14As2,22.4
Ba0.88La0.12Fe2As2,22.4
La1Fe1As0.75P0.25F0.05O0.95,22.38
La1.85Sr0.15Cu0.9875Zn0.0125O4,22.3
La1.8Sr0.2Cu1O4,22.3
Pr1.85Ce0.15Cu0.98V0.02O3.98,22.3
Sm1.857Ce0.143Cu1O4,22.3
Ba1Fe1.86Co0.14As2,22.3
Ba0.5K0.5Fe1.9Cu0.1As2,22.29
La1.914Sr0.086Cu1O4,22.25
La1.85Sr0.15Cu0.98Ni0.02O4,22.2
Nd1.75Sm0.1Ce0.15Cu1O3.972,22.2
Ba0.51K0.49Bi1O2.974,22.2
Li1Hf1N1I1,22.2
Ba1Fe1.852Co0.148As2,22.2
Ba1Fe1.848Rh0.152As2,22.2
Ca1Fe0.92Rh0.08As1F1,22.2
Rb0.8Fe2Se1.75Te0.25,22.2
Ca9.07La0.93Pt3Fe10As18,22.2
Ca9.1La0.9Pt3Fe10As18,22.2
La1.85Sr0.15Cu0.985Zn0.015O4,22.1
Nd1.85Ce0.15Cu1O3.95,22.1
La1.892Ba0.108Cu1O4,22.1
La1.83Sr0.17Cu0.98Ni0.02O4,22.1
Y1Ba2Cu3.9Zn0.1O8,22.1
La1.78Sr0.22Cu1O4,22.1
La1.79Sr0.21Cu0.99Ru0.01O4,22.1
Ge1Nb3,22.1
Mg0.7Al0.3B2,22.1
Nd1.85Ce0.15Cu0.995Mn0.005O4,22.1
La1.85Ca0.15Cu1O4,22.1
Ca8.18La1.82Pt3Fe10As18,22.1
Nd1Fe0.8Ru0.2As1F0.11O0.89,22.1
La0.3Na0.7Fe2As2,22.1
Sr0.2La1.8Cu0.99Cr0.01O4,22
Y1Ba2Cu2.7Co0.3O6.88,22
Nd1.55La0.3Th0.15Cu1O4,22
Nd0.95La0.9Ce0.15Cu1O4,22
Bi2Ca2.5Sm0.5Cu2O8.33,22
Bi2Sr2Ca0.5Y0.5Cu2O8,22
La1.82Sr0.18Cu1O3.967,22
Nd1.85Ce0.15Cu1O4,22
Y0.57Pr0.43Ba2Cu3O7,22
La1.945Rb0.055Cu1O4,22
Bi1.95Sr1.45Pr0.6Cu1O4,22
Y1Ba2Cu2.79Co0.21O7,22
Pb0.5Cd0.5Sr2Y0.5Ca0.5Cu2O7,22
La2.85Ca0.3Ba2.85Cu6O14.252,22
Nd2Cu1FO4,22
Ca1La1Ba1Cu2.76Fe0.24O7,22
Ba1.6Sr0.4Yb0.75Ca0.25Cu3O6,22
La1.82Ba0.18Cu1O4,22
La1.8Nd0.1Ba0.1Cu1O4,22
La1.02Pr0.85Sr0.13Cu1O4,22
Tl1Ba0.6Sr0.4La1Cu1O5.16,22
Hg1Ba2Cu1O4.39,22
La1.8Sr0.2Cu1O4,22
La1.78Sr0.22Cu1O4,22
Y1Ba1.5La0.5Cu3O7.06,22
Eu1.5Ce0.5Sr2Cu1Ti1O10,22
La1.85Sr0.15Cu0.985Zn0.015O4,22
La1.8Sr0.2Cu0.98Zn0.02O4,22
La1.9Ca0.1Cu1O4,22
Y2Ba4Cu7O14.33,22
Pr1.85Ce0.15Cu1O4,22
Y1Ba2Cu2.64Co0.36O7.03,22
Pr1.85Ce0.15Cu0.99V0.01O3.98,22
La1.87Ce0.13Cu1O4,22
Ru0.9Ir0.1Sr2Gd1Cu2O8,22
Y1Pd3B3C0.3,22
Mg1B1.6C0.4,22
Mg1B1.8C0.2,22
Na0.18Hf1N1Cl1,22
Gd1Fe1As1F0.17O0.83,22
La1Fe1As1F0.075O0.925,22
Ba1Fe1.8Co0.2As2,22
Pr0.88La1Ce0.12Cu1O3.947,22
Ba1Fe1.84Co0.16As2,22
Ba1Fe1.75Co0.25As2,22
Ba1Fe2As2,22
Ba0.511K0.489Fe1.772Co0.228As2,22
Fe1.9Co0.1As2Sr4Mg1Ti1O6,22
Eu1Fe2As1.68P0.32,22
Fe2As2Sr4Sc1.5Ti1.5O8,22
Ca0.5Na0.5Fe2As2,22
Ca0.67Sr0.33Fe2As2,22
K0.8Fe1.996Co0.004Se2,22
Ba0.8K0.2Fe2As2,22
Na1Fe0.97Co0.03As1,22
Pr0.65Sr0.35Fe1As0.8Sb0.2O1,22
Pr0.6Sr0.4Fe1As0.9Sb0.1O1,22
Fe1Sr2Eu1Cu2O7.51,22
Ca1Fe0.9Co0.1As1F1,22
Ca0.78La0.22Fe1As2,22
Rb0.75Fe1.6Se1S1,22
Ca0.76Ce0.24Fe1As2,22
Ba1Fe1.86Co0.14As2,22
La1.85Sr0.15Cu98Ni0.02O4,21.96
Y1Ba2Cu3O6.29,21.9
Ca0.4Nd0.6Ba1La1Cu3O7.19,21.9
Sm1.85Ce0.15Cu1O4,21.9
Y0.5Pr0.5Ba2Cu3O6.98,21.9
Sr1Fe1.75Rh0.25As2,21.9
Pr0.65Sr0.35Fe1As0.85Sb0.15O1,21.9
Eu1Fe1.72Ir0.28As2,21.9
Ca8.2La1.8Pt3Fe10As18,21.9
Pr0.65Sr0.35Fe1As0.9Sb0.1O1,21.87
Bi2Sr1.6Pr0.4Cu1O6.313,21.8
La1.884Ba0.116Cu1O4,21.8
Nd1.55Sm0.3Ce0.15Cu1O3.972,21.8
Sm1.85Ce0.15Cu1O3.97,21.8
Ge1Nb3,21.8
K2Rb1C60,21.8
La1.45Nd0.4Sr0.15Cu1O4,21.8
Ba1Fe1.84Co0.16As2,21.8
La1.84Sr0.16Cu0.985Zn0.015O4,21.8
La1Fe1As1O0.6,21.8
Ce1Fe1As0.85P0.15F0.05O0.95,21.8
Ca0.78La0.22Fe1As2,21.8
Nd1.84Ce0.16Cu1O4,21.75
La1.4Nd0.4Sr0.2Cu1O4,21.7
La1.875Ca0.125Cu1O4,21.7
Sr0.67K0.33Fe2As2,21.7
Ba1Fe1.844Co0.156As2,21.7
Sm1Fe0.9Ru0.1As1F0.15O0.85,21.7
Sm1Fe1As0.5P0.5O0.85,21.7
Ce1Fe1As0.85P0.15F0.05O0.95,21.7
Ba1Fe2As1.4P0.6,21.7
Nd1.85Ce0.15Cu1O4,21.6
La1.782Ba0.218Cu1O4,21.6
Nd0.85Pr0.15Ba2Cu3O6.75,21.6
Nd1.65Sm0.2Ce0.15Cu1O3.971,21.6
Nd1.85Ce0.15Cu1O3.971,21.6
Eu1Fe1.72Ir0.28As2,21.6
La2Cu1O4,21.5
Nd1.55La0.3Ce0.15Cu1O4,21.5
Ba0.6K0.4Bi0.9Pb0.1O3,21.5
Nd1.85Ce0.15Cu1O4,21.5
Ba0.62K0.38Bi1O3,21.5
Y0.65Pr0.35Ba2Cu3O6.6,21.5
Pr1.91Ce0.09Cu1O4,21.5
Mg1B1.8C0.2,21.5
Th1Pd3B3C1,21.5
La1.85Sr0.15Cu0.98Ni0.02O4,21.5
Ba1Fe1.84Co0.16As2,21.5
Ba1Fe1.89Co0.11As2,21.5
Eu1Fe1.5Ru0.5As2,21.5
Ba2Ti2Fe2As4O1,21.5
Eu1Fe1.72Ir0.28As2,21.5
Eu1Fe1.2As2P0.8,21.5
Ca0.74La26Fe0.954Co0.046As2,21.5
Sm1.75Gd0.1Ce0.15Cu1O3.97,21.4
Ba1Fe1.85Co0.15As2,21.4
K0.7Fe1.55Se1.01S0.99,21.4
La1Fe1As0.4P0.6F0.1O0.9,21.4
Nd1.86Ce0.14Cu1O3.96,21.3
La1.78Sr0.22Cu0.99Ni0.01O4,21.3
Ca0.4Ba1.25La1.35Cu3O7.04,21.3
La1.78Sr0.22Cu1O4,21.3
La1.77Sr0.23Cu1O4,21.3
Ba1Fe0.875Ru1.125As2,21.3
Nd1Fe0.7Ru0.3As1F0.11O0.89,21.3
La1.925Sr0.075Cu1O4,21.2
Nd1.85Ce0.15Cu1O3.98,21.2
Nd1.65La0.2Ce0.15Cu1O4,21.2
Ba0.57K0.43Bi1O3,21.2
La1.78Sr0.22Cu0.99Ni0.01O4,21.2
Pr1.85Ce0.15Cu1O3.98,21.2
Pr1.85Ce0.15Cu0.97V0.03O3.98,21.2
Ge1Nb3,21.2
La1.865Ce0.135Cu1O4,21.2
Ca1Fe0.85Co0.15As1F1,21.2
Ca1Fe1.922Co0.078As2,21.2
La1Fe1As1F0.075O0.925,21.2
Ba1Fe1.48Ru0.52As2,21.2
La1Fe1As0.5P0.5F0.05O0.95,21.2
La1Fe1As0.4P0.6F0.1O0.9,21.14
Ba0.48K0.52Bi1O2.9,21.1
Y0.9Pr0.1Ba2Cu3O6.5,21.1
Nd1.85Ce0.15Cu1O4.026,21.1
Nd1.85Ce0.15Cu1O4.028,21.1
Nd1.85Ce0.15Cu0.98Mn0.02O4,21.1
La1Fe1As1F0.11O0.89,21.1
Na1Fe0.975Co0.025As1,21.1
Ba1Fe1.75Pt0.25As2,21.1
Ba1Fe1.824Co0.176As2,21.1
Ba2Ti2Fe2As4O1,21.1
La1Fe1As0.4P0.6F0.14O0.86,21.1
La1.87Sr0.13Cu0.9925Zn0.0075O4,21.02
Sr0.2La1.8Cu0.95Ti0.05O4,21
Sr0.2La1.8Cu0.95Ni0.05O4,21
Gd1Ba2Cu2.64Fe0.36O6.99,21
La1.8Ba0.2Cu1O4,21
Nd1.75Y0.1Ce0.15Cu1O4,21
Y1Sr2Cu2.65Ga0.35O6.7,21
Y1Sr2Cu2.6Fe0.4O7,21
Y1Sr2Cu2.675Ti0.325O6.6,21
Y1Sr2Cu2.65Ti0.35O6.8,21
Bi2Sr1.5La0.5Cu1O6.38,21
Nd1.85Ce0.15Cu1O4,21
Ca1.737Cu0.868Cl1.868Na0.132O2.263,21
La1.92K0.08Cu1O4,21
Sr1.4K0.6Cu1C1O5,21
Tl1Sr2Ca1Cu2O6.76,21
Y1Ba2Cu3.8Ni0.2O8,21
Sr2Cu1C0.94B0.06O5,21
Eu1.5Ce0.5Sr2Cu2Nb1O9.955,21
Pr1.79Ce0.15Sr0.06Cu1O3.94,21
Cu0.75Ti0.25Sr2Y1.3Ce0.7Cu2O8.71,21
La1.83Sr0.17Cu1O4,21
Nd1.85Y0.15Cu1O4,21
Sm0.8Pr0.2Ba2Cu3O6.65,21
Dy0.9Ca0.1Ba2Cu2.7Zn0.3O6.72,21
La1.74Nd0.125Sr0.135Cu1O4,21
La1.78Sr0.22Cu0.92Ni0.08O4,21
La1.775Sr0.225Cu0.995Ni0.005O4,21
La1.78Sr0.22Cu1O4,21
La1.77Sr0.23Cu1O4,21
La1.8Sr0.2Cu0.99Zn0.01O4,21
Er1Ba2Cu2.64Zn0.18Fe0.18O6.95,21
Y1Ba2Cu2.95Zn0.05O6.62,21
Sm1.65Gd0.2Ce0.15Cu1O3.97,21
Ru1Sr2Gd0.82Nd0.18Cu2O8,21
Pr1.86Ce0.14Cu1O4,21
Pr1.85Ce0.15Cu1O4,21
Mg1B1.8C0.2,21
Y1Pd4B1C0.2,21
Nb0.79Al0.16Ge0.05,21
Li1Hf0.5Zr0.5N1Cl1,21
Mg1B1.92F0.08,21
Nd1.85Ce0.15Cu0.96Mn0.04O4,21
Sr1Fe2As2,21
La1Fe1As1O1,21
Mo1Sr2Y1Cu2O8,21
Eu1Fe1.78Co0.22As2,21
Ba1Fe1.25Ru0.75As2,21
Ba1Fe1.824Co0.176As2,21
Eu1Fe1.715Co0.285As2,21
Eu1Fe2As1.7P0.3,21
Ca0.6Na0.4Fe2As2,21
La1.73Sr0.27Cu1O4,21
Pr2Ba4Cu7O14.3,21
Na1Fe0.975Co0.025As1,21
Na1Fe0.97Co0.03As1,21
Ca0.84Ce0.16Fe1As1.98Sb0.02,21
La1Fe1As1H0.44O0.56,21
Ca0.85Pr0.15Fe1As2,21
Eu1Fe1.78Ir0.22As2,21
La0.95Y0.05Fe0.995Mn0.005As1F0.11O0.89,21
Ba2Ti2Fe2As4O1,21
Ba1Fe1.889Co0.102Cu0.009As2,20.95
Pr1.85Ce0.15Cu1O4,20.9
Gd0.6Pr0.4Ba2Cu3O7,20.9
Nb0.75Al0.19Ge0.06,20.9
Mg1B1.6Be0.4,20.9
Nd1.85Ce0.15Cu1O4,20.9
Ca9.35Dy0.65Pt3Fe10As18,20.9
La1Fe1P0.6As0.4F0.1O0.9,20.86
Ba1Fe2As1.06P0.94,20.8
Al0.77Ge0.23Nb3,20.75
Pr2Ba4Cu7O14.44,20.75
Al0.75Ge0.25Nb0.003,20.7
Al0.8Ge0.2Nb3,20.7
Nb0.79Al0.164Ga0.057,20.7
Nb3Al0.71Ge0.29,20.7
Sr0.95Nd0.05Cu1O2,20.7
Ba1Fe1.82Co0.18As2,20.7
Ba0.52K0.48Bi1O2.93,20.6
Bi0.1485Mo0.1815Cu2.67Sr2Y1O7.21,20.6
La1.75Nd0.1Ca0.064Ba0.086Cu1O4.03,20.6
Ru1Sr1.98La0.02Gd1Cu2O8,20.6
La1.85Ca0.15Cu1O4,20.6
Ce1Fe1As0.8P0.2F0.05O0.95,20.6
Pr2Ba4Cu7O14.36,20.6
Y1Ba2Cu2.9Fe0.1O6.64,20.5
Y1Ba2Cu2.9Ni0.1O6.61,20.5
La1.85Sr0.15Cu0.99Ru0.01O4,20.5
Ga1Nb3,20.5
La1Fe1As1F0.05O0.95,20.5
Ba1Fe1.892Co0.108As2,20.5
Sr0.6La0.4Fe2As2,20.5
Ca6.85Pr3.15Pt3Fe10As18,20.5
Ba0.765K0.235Fe2As2,20.5
Ge1Nb3,20.46
La1.85Sr0.15Cu0.992Fe0.008O4,20.4
Ba0.59K0.41Bi1O2.96,20.4
Sr2Y1Ru0.9Cu0.1O6,20.4
Y0.6Pr0.4Ba2Cu3O6.95,20.4
Nb3Al0.76Ge0.24,20.4
Nb3Al0.66Ge0.34,20.4
Ca1Fe1.92Co0.08As2,20.4
Ca1Fe0.85Co0.15As1F1,20.4
Na1Fe0.97Co0.03As1,20.4
Ca1K1Fe3.872Ni0.128As4,20.4
Nd1.85Ce0.15Cu1O4,20.35
Al0.75Ge0.25Nb3.8,20.34
La1.92Sr0.08Cu1O3.994,20.3
Y0.35Pr0.65Ba1Sr1Cu3O6.9,20.3
Pr1.83Ce0.17Cu1O4,20.3
Ga0.4Nb0.6,20.3
Ga1Nb3,20.3
C60K3,20.3
La0.87Sr0.13Fe1As1O1,20.3
Sr0.33Hf1N1Cl1,20.3
La1Fe1As1H0.42O0.58,20.3
Ba1Fe1.9Ni0.1As2,20.3
Ba1Fe1.892Ni0.108As2,20.3
Al0.66Ge0.22Nb3.1,20.29
Nb0.78Al0.165Ge0.055,20.29
Nb0.75Al0.185Ge0.065,20.26
La1.85Sr0.15Cu0.988Zn0.012O4,20.2
Bi1.7Pb0.3Sr1.6La0.4Cu1O6.141,20.2
Y0.4Pr0.6Sr2Cu2.85Re0.15O6.8,20.2
Sm1.55Gd0.3Ce0.15Cu1O3.97,20.2
La1.8Pr0.2Cu1O4.0631,20.2
Al0.75Ge0.25Nb3,20.2
Ga0.32Nb0.68,20.2
Ga0.245Nb0.755,20.2
Ba1Fe1.904Ni0.096As2,20.2
Ba0.33Hf1N1Cl1,20.2
La0.8Y0.2Fe0.985Mn0.015As1F0.11O0.89,20.2
La1.9Sr0.1Cu0.995Zn0.005O4,20.19
Nb0.75Al0.178Ge0.072,20.1
Ga1Nb3,20.1
La1.887Ca0.1125Cu1O4,20.1
Sr1Fe1.3Ru0.7As2,20.1
Na1Fe0.972Co0.028As1,20.1
Ba1Fe1.9Ni0.1As2,20.1
Al0.8Ge0.2Nb3,20.05
Y1Ba2Cu2.82Al0.18O7,20
La1.9Ca0.1Cu1O3.967,20
Er1Ba2Cu3O6.34,20
Y1Ba2Cu3O6.5,20