formula,Tc
Zr1Ru4P2,11
B1,11
Li1.3Zr1N1Cl1,11
Na1.38Zr1N1Cl1,11
Pb0.7Eu0.3Mo6.35S8,11
Nb0.2W0.8C1,11
Mo0.84Zr0.16C1,11
La1.5Nd0.4Sr0.1Cu1O4,11
Li0.9Mg0.1,11
La1Fe0.95Co0.05As1O1,11
Ba1Pb0.75Bi0.25O3,11
Ba1Fe1.92Co0.08As2,11
Fe1.049Se0.2Te0.8,11
Fe1.013Te0.68Se0.32,11
Fe1.04Te0.95Se0.05,11
Mn0.1Fe0.9Se0.85,11
Ba0.86K0.14Fe1.68Co0.32As2,11
Ba0.82K0.18Fe1.654Co0.346As2,11
Sr1Fe1.732Co0.268As2,11
Fe2As2Ba4Sc3O7.5,11
Ba1Fe2Se3,11
Ba1Fe1.9Se3,11
Er1Ni2B2C,11
Ca10Pt3.97Fe9.03As18,11
Fe1Te0.6Se0.4,11
Ba1Fe1.81Zn0.08Co0.11As2,11
K0.8Fe1.993Cr0.007Se2,11
K0.8Fe1.988Co0.012Se2,11
Ca0.81Nd0.19Fe1As2,11
Li0.8Fe1.2Se0.23S0.77H1O1,11
Sm1Fe1As0.55P0.45H0.16O0.84,11
Fe1Se0.1Te0.9,11
Ca1Fe2As1.94P0.06,11
La0.8Y0.2Fe0.98Mn0.02As1F0.11O0.89,11
Bi1.6Pb0.3Sb0.1Sr2Ca2Cu3O10,109
Tl2Ba2Ca1Cu2O8,109
Tl2Ba2Ca3Cu4O12,109
Sr2Ca2Cu3O5.5,109
Bi2Sr2Ca2Cu3O10,109
Bi1.8Pb0.3Sr2Ca2Cu3O10,109
Tl2Ba2Ca1Cu1.98Fe0.02F0.2O7.9,109
Tl2Ba2Ca1Cu2O8,108.7
Bi2Sr2Ca2Cu3O10.28,108.7
Bi1.65Pb0.35Sr2Ca2Cu3O10,108.6
Bi1.4Pb0.6Sr2Ca2Cu3O7,108.5
Tl2Ba2Ca1Cu2O7,108
Tl1Ba2Ca2Cu3O9,108
Hg0.7Bi0.3Sr2Ca2Cu3O8.15,108
Bi1.8Pb0.3Sr2Ca2Cu3O10,108
Bi1.7Pb0.3Sr2Ca2Cu3O10,108
Bi1.6Pb0.4Sr2Ca2Cu3O10,108
Ba2Ca1Cu2F1.6O4.4,108
Tl1Ba2Ca1Cu2O8,107.995
Bi0.6Nd0.2Tb0.2Pb1Sr2Ca2Cu3O10,107.5
Tl2Ba2Ca1Cu2O8,107.2
Tl2Ba2Ca1Cu2O7.958,107
Tl2Ba2Ca1Cu2O7.946,107
Bi1.8Pb0.4Sr1.85Ca2.05Cu3O10.26,107
Ga1Sr2Ca3Cu4O11.,107
Ga1Sr2Ca3Cu4O11.1,107
Hg0.7Bi0.3Sr2Ca2Cu3O8.35,107
Hg0.5Bi0.5Sr2Ca2Cu3O8.35,107
Hg1Ba2Ca2Cu3O8.22,107
Bi1.8Pb0.3Sr2Ca2Cu3O10,107
V0.5Sr2.7Ca2.3Cu4.5O11.6,107
Tl2Ba2Ca1Cu2O8,106.7
Bi2Sr2Ca2Cu3O10,106.5
Bi1.7Pb0.3Sr2Ca2Cu3O10,106.5
Ba2Ca3Cu5O,106
Hg0.75Mo0.05Sr2Ca2Cu3O,106
Tl2Ba2Ca1Cu2O8,106
Tl2Ba2Ca1Cu1.98Fe0.02O8,106
Ba2Ca1Cu2F1.4O4.6,106
Bi1.6Pb0.4Sr2Ca2Cu3O10.11,105.3
Bi0.16Pb0.4Sr2Ca2Cu3O10.11,105.3
Tl0.5Pb0.5Sr2Ca0.8Y0.2Cu2O7,105.2
Tl2Ba2Ca2Cu3O10,105
Bi1Sr1Ca1Cu1O1,105
Sr15.9Ca7.6Cu17.6C3.3B2.6O53,105
Tl1Ba1Sr1Ca2Cu3O9,105
Tl1Ba2Ca1Cu2O8,105
Hg1Ba2Ca1Cu2O6.14,105
Hg1Ba2Ca2Cu3O8.2,105
Tl2Ba2Ca1Cu2O8,105
Ba2Ca3Cu4F1.2O8.8,105
Tl1Ba2Ca1Cu2O8,104.95
Bi1.4Pb0.6Sr2Ca1.9Ga0.1Cu3O7,104.4
Bi1.6Pb0.4Sr2Ca2Cu3O9.91,104.4
Tl1.8Ba2Ca0.85Cu2.2O8,104
Hg0.7Bi0.3Sr2Ca2Cu3O8.65,104
Tl2Ba2Ca1Cu2O8,104
Hg1Ba2Ca2Cu3O8.2,104
Bi1.6Pb0.35V0.05Sr2Ca2Cu3O10.12,103.7
Bi0.16Pb0.35V0.05Sr2Ca2Cu3O10.12,103.7
Bi1Pb1Sr2Ca2Cu3O10,103.5
Hg0.5Pb0.5Ba2Ca2Cu3O8.45,103
Cu3.5Sr2Ca2Cr0.5O9.55,103
Tl1.6Ba2Ca3.3Cu4O11.89,103
Tl2Ba2Ca1Cu2O8,103
Tl2Ba2Ca0.9Ce0.1Cu1.98Fe0.02F0.2O7.9,103
Tl2Ba2Ca0.8Ce0.2Cu2O8,103
Ba2Ca3Cu4F1O9.0,103
Bi1.6Pb0.3Sr2Ca2Cu3V0.1O10.12,102.5
Bi0.16Pb0.3V0.1Sr2Ca2Cu3O10.12,102.5
Bi1.6Pb0.4Sr2Ca2Cu3O10.07,102.3
Tl1Ba2Ca0.65Y0.35Cu2O7,102
Tl2Ba2Ca1Cu2O8,102
Bi1.6Pb0.4Sr2Cu3Ca2O0.13,102
Hg0.8Bi0.2Sr2Ca2Cu3O8.35,102
Tl0.5Pb0.5Sr1.84Nd0.16Ca1Cu2O7,102
Hg1Ba2Ca1Cu2O6.13,102
Ba2Ca3Cu4F1.2O8.8,102
Ba2Ca2Cu3F1.6O6.4,102
Tl1Sr2Ca0.8Cr0.2Cu2O7,102
Hg1Ba2Ca2Cu3O8.16,101
Tl2Ba2Ca1Cu1.98Fe0.02F0.3O7.85,101
Y3Ba5Cu8O18,100.1
Tl1Ba2Ca0.8Nd0.2Cu2O6.86,100
Ga1Sr2Ca3Cu4O10.9,100
Cu0.5S0.5Sr2Ca2Cu3O12,100
Hg1Ba2Ca1Cu2O6.3,100
Tl2Ba2Ca0.9Ce0.1Cu2O8,100
Tc0.95V0.05,10.99
Er1Ni2B2C1,10.96
Ca10Pt3.42Fe9.58As18,10.96
La1Bi1S2F0.5O0.5,10.96
Th1Co0.5Ni0.5C2,10.96
C1Nb1,10.95
C0.571N0.271Ta1,10.92
Tm1Ni2B2C1,10.92
Gd0.51Sm1.34Ce0.15Cu1O4,10.9
La1.8Sr0.2Cu0.97Ni0.03O4,10.9
Li2.6Ti2.7O4,10.9
Nb3Pt1,10.9
Mo0.95Hf0.05C0.7,10.9
Cu1.5Mo4.5S6,10.9
Nb0.42Tc0.58,10.9
V2.7Ti0.3Si1,10.9
Nb79.2Sn5.2Al5.2Ge10.4,10.9
Si1V2.7Ti0.3,10.9
Y1Ni1.7Cu0.3B2C1,10.9
Tm1Ni2B2C1,10.9
Nb0.8Zr0.2,10.9
Nb3Rh0.02Au0.98,10.9
Th1.6Lu0.4C3,10.9
Sn1.08Eu0.1Mo6.35S8,10.9
Mo0.8Zr0.2C1,10.9
Sc1Tc2,10.9
B2.6Nb1,10.9
Fe1Se0.082Te0.738,10.9
La1Fe0.9Ir0.1As1O1,10.9
Pr1Fe0.9Co0.1As0.8P0.2O1,10.9
Ca9.75Lu0.25Pt3Fe10As18,10.9
Ba1Fe1.82Ni0.18As2,10.9
La0.99Y0.01Fe0.995Mn0.005As1F0.11O0.89,10.9
Tm1Ni2B2C1,10.88
La1Fe1As0.2P0.8F0.05O0.95,10.87
Nb5Ir3O1,10.84
Bi1.5Pb0.5Sr1.4La0.6Cu1O6.118,10.8
La1.85Sr0.15Cu0.98Ru0.02O4,10.8
La1.85Sr0.15Cu0.97Ru0.03O4,10.8
C1Mo2,10.8
C1.35Nb0.1Y0.9,10.8
Cu1Mo3S4,10.8
Mo0.05Tc0.95,10.8
Nb0.25Sn0.25Ta0.5,10.8
Nb0.85Zr0.15,10.8
V2.928Re0.072Ga1,10.8
Nb3Rh0.1Au0.9,10.8
Nb1Ta2Sn1,10.8
Nb1Sn1Ta2,10.8
Nb0.66Zr0.33,10.8
Nb0.75Zr0.25,10.8
Rh1Zr2,10.8
Cu2Mo6S8,10.8
Er1Ni2B2C1,10.8
Y1Ni1.7Cu0.3B2C1,10.8
Zr2Rh1H0.1,10.8
Au1Nb3,10.8
La1Mo6Se8,10.8
Tm1Ni2B2C1,10.8
Er0.8Lu0.2Ni2B2C1,10.8
V0.75Ge0.175Al0.075,10.8
Nb0.7Zr0.3,10.8
Rh0.1Zr0.9,10.8
Y1.8Nb0.2C2.7,10.8
Y5Os4Si15,10.8
Fe1Se0.8S0.2,10.8
La1Fe1As0.7P0.3O1,10.8
Ca1Fe1.7Co0.3As2,10.8
Li1Fe0.95Co0.05As1,10.8
Hf1Ru1P1,10.8
Na1Fe0.968Cu0.032As1,10.8
Ca1Fe1.96Rh0.04As2,10.8
La0.8Y0.2Fe0.97Mn0.03As1F0.11O0.89,10.8
Mo1S2,10.8
Tm1Ni2B2C1,10.79
Nb0.5Zr0.5,10.75
Nb0.6Zr0.4,10.75
C0.198N0.747Ta1,10.74
La1.892Ba0.108Cu1O4,10.7
Au1Nb3,10.7
P1,10.7
C1.35Ti0.1Y0.9,10.7
N1Zr1,10.7
V3Si0.79Ga0.21,10.7
Cu1.8Mo6S8,10.7
Y2I1.75Cl0.25C2,10.7
Y1Ni1.7Pd0.3B2C1,10.7
Nb0.9Zr0.1,10.7
V3Ga0.9Sn0.1,10.7
Nb0.75Zr0.25,10.7
Y1.8Ti0.2C2.7,10.7
Sn1.2Mo6.35S8,10.7
Sn0.96Eu0.2Mo6.35S8,10.7
Li1Ti2O4,10.7
Fe1Se0.656Te0.164,10.7
Ba1Pb0.35Hg0.4Bi0.25O3,10.7
La1Bi1S2F0.5O0.5,10.7
Fe1Se0.89S0.11,10.7
V2Hf0.84Nb0.16,10.67
Cu1Mo3S4,10.66
La1Pt1.5Au0.5B2C1,10.65
Fe1Se0.89S0.11,10.64
La1.45Nd0.4Sr0.15Cu1O4,10.6
Sm0.7Pr0.3Ba2Cu3O6.65,10.6
C1.35Ge0.1Y0.9,10.6
Mo0.6Re0.4,10.6
V3Si0.1Ga0.9,10.6
Mo0.6Re0.395,10.6
Mo0.5Re0.395,10.6
Y1Ni1.6Cu0.4B2C1,10.6
Er1Ni2B2C1,10.6
Au1Nb3,10.6
Nb0.8Ga0.16Ni0.04,10.6
Nb0.8Ga0.16Cr0.04,10.6
C0.99Nb1,10.6
Y0.65Dy0.35Ni2B2C1,10.6
Pb1Mo6S7.5Se0.5,10.6
Y0.85Gd0.15Ni2B2C1,10.6
V0.7Si0.2Al0.1,10.6
Mo0.35Pt0.075Re0.375,10.6
Nb0.75Zr0.25,10.6
Nb0.65Zr0.35,10.6
Y1.8Ge0.2C2.7,10.6
Sn0.84Eu0.3Mo6.35S8,10.6
Y1Rh4B4,10.6
Lu1Ru1B2,10.6
Ba1Fe1.772Co0.228As2,10.6
Fe1Se0.9S0.1,10.6
Fe1Se0.85,10.6
Sm0.1Fe0.9Se0.85,10.6
Ba0.1Fe0.9Se0.85,10.6
Na1Fe0.925Co0.075As1,10.6
La1Fe1As0.7P0.3O1,10.6
Y1Rh4B4,10.591
V75Si5Ga20,10.58
Lu1Ru1B2,10.58
Li1Fe0.98Ni0.02As1,10.58
Au0.242Nb0.758,10.56
Au0.24Nb0.76,10.56
Au1Nb3,10.56
Tc0.97Ti0.03,10.56
Nb3Pt1,10.53
Fe1Se0.86S0.14,10.52
Ba1Pb0.75Bi0.25O3,10.5
Nd1.5725Y0.2775Ce0.15Cu1O4,10.5
La1.675Nd0.2Sr0.125Cu1O4,10.5
Sm1.48Gd0.37Ce0.15Cu1O4,10.5
Ca1.825Na0.175Cu1Br2O2,10.5
Li1.05Ti1.95O4,10.5
C1.35Ca0.1Y0.9,10.5
C1Ta0.45W0.55,10.5
Mo1Ru1,10.5
Nb1Tc3,10.5
V3Si0.72Ga0.28,10.5
V3Si0.986Sb0.014,10.5
Nb3Sn0.35Sb0.65,10.5
Sn1Mo6S8,10.5
Cu2.6Mo6S8,10.5
La1Pt2B2C1,10.5
Y1Pt2B2C1,10.5
Y1Ni1.4Cu0.6B2C1,10.5
Er1Ni2B2C1,10.5
Lu1Ni1.93Co0.14B2C1,10.5
C1Nb1,10.5
Na2Cs1C60,10.5
Zr1Rh1Si1,10.5
La1Pt2.1B2.4C1.2,10.5
Cu1.8Mo6S8,10.5
Y2I1.4Br0.6C2,10.5
Y2I1.3Br0.7C2,10.5
Mo0.7Re0.3,10.5
V3Ga0.2Si0.8,10.5
Nb0.25Ti0.75N0.98,10.5
Cu1Mo3S4,10.5
Ir0.4Nb0.55O0.05,10.5
N0.78Nb1,10.5
Ta0.2Mo0.8C1,10.5
Ba1Fe1.924Co0.076As2,10.5
Fe1Se0.82Cl0.18,10.5
Fe1Te0.8Se0.2,10.5
Ca10Pt3.97Fe9.03As18,10.5
Ba0.82K0.18Fe2As2,10.5
La1Fe1As1F0.15O0.85,10.5
Sm1Fe1As0.47P0.53H0.09O0.91,10.5
Ca1K1Fe3.804Ni0.196As4,10.5
Nb5Ir3O1,10.5
Y0.86Gd0.14Ni2B2C1,10.475
Nb0.25Zr0.75,10.45
V2Hf0.87Ta0.13,10.45
Nb5Ir2.2Pt0.8O1,10.44
Cu2Mo6S8,10.43
Fe1Se0.93S0.07,10.42
La1.85Sr0.15Cu0.979Zn0.021O4,10.4
Ca0.2Ba1.55La1.25Cu3O6.98,10.4
Bi1.95Sr1.65La0.4Cu1O6.414,10.4
La1.875Ba0.065Sr0.06Cu1O4,10.4
Li1.12Ti1.88O4,10.4
Li1.07Ti1.93O4,10.4
Rh0.03Zr0.97,10.4
Tc0.9W0.1,10.4
V2.91Mo0.09Si1,10.4
Nb48.15Zr42.5Ta9.35,10.4
Y1Ni1.4Cu0.6B2C1,10.4
Er1Ni2B2C1,10.4
Y1Ni1.24Pd0.76B2C1,10.4
Y1Ni1.34Pd0.66B2C1,10.4
V0.75Si0.125Al0.125,10.4
V0.73Si0.23Al0.04,10.4
Nb0.5Zr0.5,10.4
Y0.83Er0.17Rh4B4,10.4
Fe1Cr0.01Se1,10.4
C1Ta1,10.35
Y2I1.75Br0.25C2,10.35
Th1Co0.7Ni0.3C2,10.34
Fe1Se0.91S0.09,10.33
Fe1Se0.83S0.17,10.33
Ba1Pb0.78Bi0.22O3,10.3
Sm1.5725Y0.2775Ce0.15Cu1O4,10.3
Li1.1Ti1.9O4,10.3
Al1V3,10.3
Nb0.5Ti0.5,10.3
Nb0.5Ti0.1Zr0.4,10.3
Nb46Zr36.1Ta17.9,10.3
Cu1.3Mo6S8,10.3
Er1Ni2B2C1,10.3
La1Ru4As12,10.3
Tm1Ni1.99Co0.02B2C1,10.3
Nb80Ga16Fe4,10.3
Zr1Rh1Si1,10.3
Y1Ni1.54Pd0.46B2C1,10.3
La0.9Nd0.1Pt2.1B2.4C1.2,10.3
V0.72Si0.17Al0.11,10.3
V0.75Ge0.2Al0.05,10.3
Nb0.6Zr0.4,10.3
Nb0.5Zr0.5,10.3
Th1.8Lu0.2C3,10.3
La1Fe0.98Co0.02As1F0.11O0.89,10.3
Fe1Se0.8,10.3
La1Fe1As0.75P0.25O1,10.3
Ga1P1,10.3
Zr1Ru0.95Fe0.05P1,10.3
Zr1Ru1P1,10.3
Pb7Bi3,10.3
Fe0.98Co0.02Se0.3Te0.7,10.3
Re0.25Mo0.75,10.3
Fe1Se0.92S0.08,10.3
Er1Ni1.98Fe0.02B2C1,10.27
Nb5Ir2.4Pt0.6O1,10.27
La1Bi1S2F0.4O0.6,10.26
K0.85La0.15Bi1O3,10.25
Ba1Pb0.8Bi0.2O3,10.25
La0.88Mo6Se8,10.25
Li1.1Ti1.9O4,10.25
K2Mo3As3,10.25
Er1Ni2B2C1,10.23
La1.94Ba0.06Cu1O4,10.2
K1Bi1O3,10.2
K0.95Bi1.05O3,10.2
K0.9Bi1.1O3,10.2
K0.8Bi1.2O3,10.2
La1.7Sr0.3Cu1O3.997,10.2
Pu1Co0.1Rh0.9Ga5,10.2
C1Ta1,10.2
C1Mo0.83Ti0.17,10.2
C1.35Sn0.1Y0.9,10.2
Ir0.125Rh0.125Zr0.75,10.2
V3Ga0.999Zn0.001,10.2
Nb50Ti5Zr45,10.2
Nb50Zr50,10.2
Sn0.5Eu0.5Mo6S8,10.2
Tm1Ni2B2C1,10.2
Y1Ni1.94Fe0.06B2C1,10.2
La1Pt1.5Au0.6B2C1,10.2
Ho0.75Y0.25Ni2B2C1,10.2
Nb3.2Al0.24Ge0.4,10.2
Pb0.7Yb0.3Mo6Se8,10.2
Mo0.65Re0.35,10.2
La1Pt2.1B2.4C1.2,10.2
V0.783Ga0.138Al0.079,10.2
Nb0.67Hf0.33N1,10.2
Mo0.55Pt0.05Re0.4,10.2
Mg1B1.7C0.3,10.2
Y1.8Sn0.2C2.7,10.2
Sn0.6Eu0.5Mo6.35S8,10.2
La1Fe1As1O1.0,10.2
Lu1Ru1B2,10.2
Eu0.7Sr0.3Fe1.715Co0.285As2,10.2
La2.95Ce0.05Ni2B2N2.7,10.2
Sr1Pt2Ge2,10.2
Na1Fe0.994Cu0.006As1,10.2
C1Ta1,10.16
Fe1.02Te0.5Se0.2S0.3,10.16
Na1Fe0.996Cu0.004As1,10.14
Gd0.75Nd1.1Ce0.15Cu1O4,10.1
Y0.45Pr0.55Ba2Cu3O6.98,10.1
Y1Ba2Cu3O6.41,10.1
Y1Ba2Cu3O6.38,10.1
Zr0.5Hf0.5V2,10.1
La1.71Sr0.25Ho0.04Cu1O4,10.1
Au0.1C1.3Y0.9,10.1
Be12Mg1Re1,10.1
C1Ta0.5W0.5,10.1
Hf0.5V2Zr0.5,10.1
Mo0.3Nb0.1Re0.6,10.1
N0.9Nb0.114Ti0.886,10.1
Nb0.7Ti0.3,10.1
V3Si0.6Al0.4,10.1
V2.865Fe0.135Ga1,10.1
Nb50Zr25Hf25,10.1
Nb50Zr40Hf10,10.1
Y1Ni1Cu1B2C1,10.1
Y2Cu2I2,10.1
Y1Ni1.46Pd0.54B2C1,10.1
Rh0.09Zr0.91,10.1
Y1.8Au0.2C2.6,10.1
Sn0.72Eu0.4Mo6.35S8,10.1
Ga25Mn4.92V70.08,10.1
Mo0.2W0.8C1,10.1
Ba1Fe1.772Co0.228As2,10.1
Y0.99Gd0.01Rh4B4,10.1
La1Fe0.9975Mn0.0025As1F0.11O0.89,10.1
Zr1Ru0.99Rh0.01P1,10.1
Zr1Ru1P1,10.1
Fe1Se0.91S0.09,10.1
La0.8Y0.2Fe0.975Mn0.025As1F0.11O0.89,10.1
La1Fe1As0.2P0.8F0.14O0.86,10.1
Nb0.68Zr0.32,10.05
Y2I1.25Br0.75C2,10.05
La1Fe0.99Zn0.01As1O0.85,10.04
Nb0.75Ti0.25,10.02
Y0.75Tb0.25Ni2B2C1,10.02
Fe1Se0.574Te0.246,10.01
Tl2Ba2Cu1O5.989,10
La1.89Sr0.11Cu1O4,10
Eu1.55La0.3Ce0.15Cu1O4,10
Sr0.4Ca13.6Cu24O41.84,10
Bi1.95Sr1.65La0.4Cu1O6.2,10
Ba1.6Sr0.4Yb1Cu3O6.48,10
Cu0.75Ce0.25Sr2Y1.3Ce0.7Cu2O8.91,10
Cu7.5Sr2Ca6Cr0.5O17.1,10
Nd0.65Pr0.35Ba1Ca1Cu3O7,10
Sm1.665Y0.185Ce0.15Cu1O4,10
La0.9Pr0.85Sr0.25Cu1O4,10
Y1Ba2Cu2.91Zn0.09O6.68,10
Y1Ba2Cu2.91Zn0.09O6.65,10
La1.48Nd0.4Sr0.12Cu1O4,10
Dy1Ba2Cu2.7Fe0.3O6.96,10
La1.78Sr0.22Cu0.985Zn0.015O4,10
Y0.5Pr0.5Ba2Cu3O6.965,10
La1.7Sr0.3Cu1O4,10
Bi2Sr2Cu1O6.09,10
Bi2Sr2Cu1O6.16,10
Y0.8Pr0.2Ba2Cu3.925Fe0.075O8,10
Pr1.87Ce0.13Cu1O4,10
Gd1Ba1.65Pr0.35Cu3O6.97,10
La1.64Eu0.2Sr0.16Cu1O4,10
Ca1.85Na0.15Cu1Br2O2,10
Pu1Co0.8Fe0.2Ga5,10
Y2C2I2,10
La1.85Ce0.15Cu1O4,10
Mo3Al2C1,10
Nb3Au0.7Pt0.3,10
C6Ca1,10
Ba8Ge46,10
La3Se4,10
Pr2Ba4Cu7O14.5,10
Al2C1Mo3,10
Al0.175Nb0.775Zr0.05,10
C1Nb0.4Ta0.6,10
C0.5W0.5,10
Mo6.35Pb0.7S8Sn0.36,10
N1Nb1,10
Nb50Zr45Hf5,10
As1Ga1,10
Er1Ni2B2C1,10
C1.35Y1,10
Lu1Pd4B1C0.2,10
Y1Cu2B2C1,10
Tm1Ni2B2C1,10
Cu1.8Mo6S8,10
Mo0.75Re0.25,10
Mo0.57Re0.43,10
Li1.4Zr1N1Cl1,10
Ho0.45Lu0.55Ni2B2C1,10
C0.03Rh0.43Ta0.54,10
Ga0.21V0.79,10
Nb0.8Ta0.2C1,10
C1Ta1,10
Ta0.6W0.4C1,10
La1Pt2B2C1,10
Ce1Fe0.9Co0.1As1O1,10
Ba1Pb0.65Hg0.1Bi0.25O3,10
Li0.9Mo6O17,10
Fe0.95Co0.05Se1,10
Fe0.95Ni0.05Se1,10
C6Ca1H,10
Fe1Se0.1Te0.9,10
Nd1Fe0.8Rh0.2As1O1,10
Fe1Te0.9S0.1,10
Fe1Se0.85,10
Y0.71Er0.29Rh4B4,10
Sm1Fe0.85Co0.15As1O1,10
Ba0.825K0.175Fe2As2,10
Ba0.88K0.12Fe2As2,10
Ca0.8Pr0.2Fe1As2,10
Ce1Fe0.74Co0.26As1H1,10
Eu1Fe2As1.4P0.6,10
Ba0.823K0.177Fe2As2,10
La0.5Bi1S2F0.5O0.5,10
Ba0.18K0.82Fe2As2,10
Nb2Ge1C1,10
Cu0.3Zr1Te2,10
Ga41Mo1,10
Fe1Se0.89S0.11,10
La0.9941Tb0.0059Al2,1.996
Bi3.9Ag0.1S3O4,1.99
Tl1Ni2Se0.4S1.6,1.99
Pd35Zr65,1.98
La3Pd4Si4,1.98
Tl1Ni2Se0.6S1.4,1.98
Ce0.875Yb0.125Co1In5,1.97
Ce0.95Nd0.05Co1In5,1.97
Ir0.02Re0.98,1.968
I4Sn1,1.96
Tl1Ni2Se1S1,1.96
Hf1Rh0.9Pd0.1Si1,1.95
Na0.926Sn2P2,1.95
La1Pt0.4Ni0.6Si1,1.945
U0.99Pd2Al3,1.94
Ni3Th7,1.94
Re0.9865Ru0.0135,1.937
Re0.9467Os0.0533,1.934
Pd0.12Ti1Se2,1.93
Ce1Co1In4.972Sn0.028,1.93
Ni19.75Zr79Mn1.25,1.92
La0.9481Ce0.0519Sn3,1.92
Ce0.8Yb0.2Co1In5,1.92
Ce0.3Pr0.7Bi1S2O1,1.92
U0.88Mo0.12,1.91
Mo1Te1.7Se0.3,1.91
La0.99Ce0.01Ni1C2,1.9
U0.85Nb0.15,1.9
U1Be12.9896B0.0104,1.89
Ce0.98Yb0.02Co1In5,1.89
Ba1Nb1S3,1.89
Ru0.77Rh0.23As1,1.88
Os8.33Re91.67,1.876
Pb0.987Tl0.0125Na0.005Te1,1.87
Nb2Pd1S3.5Se1.5,1.87
La1Pt1.85Ge2.15,1.87
La0.9462Ce0.0538Sn3,1.86
Ce1Co0.95Ni0.05In5,1.86
Lu1Pd1Bi1,1.85
As1Cr1,1.85
K1Fe1.932Co0.068As2,1.845
Os2.76Re97.24,1.844
Zr46.75Ti8.25Cu7.5Ni10Be27.5,1.84
Os0.0275Re0.9725,1.84
Ce0.916Yb0.084Co1In5,1.84
Cs1Fe2As2,1.84
Ba1Pt2Sb2,1.835
Y1Fe2Ge2,1.83
Ce1Co1In4.95Cd0.05,1.83
Ce1Co1In4.75Zn0.25,1.82
Ce1Rh1In5,1.82
Ir0.49Mo0.51,1.81
Cs1Fe2As2,1.81
Os0.02Re0.98,1.807
Sm0.03La0.97Ni1C2,1.8
Lu1Pt2Si2,1.8
Sn0.9025Pb0.0475In0.05Te1,1.79
Ce0.95Sm0.05Co1In5,1.78
Eu3Bi2S3.8Se0.2F4,1.78
Au0.93Pd0.07Ga2,1.773
Ce1Co0.5Ru0.5In5,1.77
Pr0.8Ce0.2Pt4Ge12,1.767
Sn0.8798Pb0.0002In0.12Te1,1.76
Ce1Co0.96Pt0.04In5,1.76
Au1V3,1.755
Ta1Ir1Te4,1.752
Pd1Te2,1.75
Li0.1K1Ca1Nb3O10,1.75
Sn0.901In0.099Te1,1.746
Sn0.9215Ge0.0285In0.05Te1,1.74
K0.4W1O3,1.74
Ba1Cu0.6Si1.4,1.74
Ce1Co1In4.95Hg0.05,1.73
La0.47Th0.53Ru2,1.73
Re0.999W0.001,1.723
Sn0.9025Ge0.0475In0.05Te1,1.72
Dy1.2Mo6S8,1.72
Au0.24Te0.76,1.72
Pb0.975Tl0.0125Na0.0125Te1,1.71
Pr1Pt4Ge10.5Sb1.5,1.71
La1F0.5Bi0.72S2Sb0.12O0.6,1.71
Re1,1.703
Hf1As1.67Te0.12,1.7
Zr1Ir1Si1,1.7
Mo0.0006Re0.9994,1.697
Re1,1.696
La1C2,1.695
Re0.9993Mo0.0007,1.694
Cr0.797Ru0.203,1.69
Pb0.196Sn0.784In0.02Te1,1.68
Cu0.2Ir1Te1.7Se0.3,1.68
La0.9989Ce0.0011Rh3B2,1.67
Pd50.745Mo0.255Sb49,1.67
H0.54Nb0.65Pd0.35,1.67
La1Pt1.9Ge2.1,1.67
Au0.328Ga0.672,1.668
U1Be12.9701B0.0299,1.66
Ga0.2V2Al20,1.66
La0.8Zr0.2Bi1S2O1,1.66
Al0.997Er0.003,1.658
La1Pt0.3Ni0.7Si1,1.655
Sn0.949In0.051Te1,1.653
La0.35Ce0.65Ru2,1.647
Pr0.8La0.2Os4Sb12,1.645
Ba1Pt1Sb1,1.64
Tb1Pd1Bi1,1.64
Dy1Rh1.2Ir2.8B4,1.63
Lu1Ni1Si3,1.63
La1Rh5,1.62
Ce1Rh1In5,1.62
Au0.278Ga0.722,1.615
Sn0.9405Ge0.0095In0.05Te1,1.61
Pd50.745Ti0.255Sb49,1.61
Pr0.8Nd0.2Os4Sb12,1.61
Pb0.3325Sn0.6175In0.05Te1,1.61
La98Lu0.934Tb1.066,1.608
La98Lu0.877Tb1.123,1.602
Cu40Zr60,1.6
Cu1Se1Te,1.6
Pd50.745Nb0.255Sb49,1.6
Sn0.6175Pb0.3325In0.05Te1,1.6
Ru0.75Rh0.25As1,1.6
Bi2Pd1,1.6
Ce1Ir1Si3,1.59
Al1Ta3,1.59
Au0.281Ga0.719,1.587
Au0.2Ga0.8,1.587
Ta1Se1.2Te0.8,1.585
Eu0.0153La0.9847,1.58
La3Ru2Sn13,1.58
Pd49.75Co0.25Sb50,1.57
Pd50.745Ru0.255Sb49,1.57
Tm5Rh3.6Co2.4Sn18,1.57
La0.8Ce0.2Pt4Ge12,1.57
Pd50.745Sc0.255Sb49,1.56
Pd49.75Cu0.25Sb50,1.56
Ce1Ir1Si3,1.56
Ce1Co0.91Pt0.09In4.938Hg0.062,1.56
La1Ir2Si2,1.55
La3Ru4Sn13,1.55
Sr1Au1Si3,1.54
Na1Sn2As2,1.54
Ga0.15V2Al20,1.53
Pr0.7La0.3Os4Sb12,1.528
Cu0.05Ti1Se2,1.52
Ce1Ir1Si3,1.52
U1Ru2Si2,1.51
Th1Ir2Ge2,1.51
As1Cr1,1.506
Cu1S2,1.505
La0.9989Ce0.0011Pt1Si1,1.5
Pd49.75Ni0.25Sb50,1.5
Te2U1,1.5
Al20.3V2,1.49
Al20.3V20,1.49
Sr2Ru1O4,1.489
Pr0.75Nd0.25Os4Sb12,1.48
Ba1Ti2Sb2O1,1.48
C2Pt1U2,1.47
Ce0.9Yb0.1Co1In5,1.47
La0.76Ce0.24Ru2,1.468
Pd50.9745Mn0.0255Sb49,1.46
V0.81Cr0.09Al0.1,1.46
Al1Ce0.0165La3,1.45
U2Pt1C2,1.45
H0.827Pd1,1.449
Ta1Se1Te1,1.445
La1Pd2Ge1.92Sn0.08,1.44
Ce0.9Sm0.1Co1In5,1.44
Pr0.8Nd0.2Os4Sb12,1.43
Ga0.3V2Al20,1.43
La0.9911Tb0.0089Al2,1.425
Ti1Ir1Si1,1.42
Cr0.82Ru0.18,1.42
Sr1Ni2P2,1.415
Pr0.6La0.4Os4Sb12,1.414
Ni19.5Zr78Mn2.5,1.41
Ce1Ag2Si2,1.41
Ce1Co0.91Pt0.09In4.975Hg0.025,1.41
Mo3Si1,1.402
U0.85Ru0.15,1.4
Ce0.9Pr0.1Bi1S2O1,1.4
Sr2Ru1O4,1.398
Ir1V2,1.39
Sr1Pd1Ge3,1.38
Au0.427Ga0.573,1.378
Sr2Ru1O4,1.37
Ce1Co1In4.935Hg0.065,1.37
La1Pt2Si2,1.365
Ce1Co0.91Pt0.09In4.962Hg0.038,1.36
Y1Ni1Si3,1.36
Au0.388Ga0.612,1.355
Pd50.99745Cr0.00255Sb49,1.35
Pb0.9875Tl0.0125Te1,1.35
Sn0.92In0.08Te1,1.35
Cr0.8Ru0.2,1.35
Mo0.2Nb0.608Pd0.192,1.34
K0.42W1O3,1.34
Ce1Rh1Ge3,1.33
Sn19Er4Rh6,1.32
La1.14Nb1Se3.14,1.32
Cr0.8Re0.2,1.31
Ce0.925La0.075Co1In5,1.31
Ce1Bi1S2O1,1.3
B2Nb1,1.3
Al0.9Li0.1,1.29
Dy1Rh0.56Ir3.44B4,1.29
Th1,1.28
U0.9Th0.1Pd2Al3,1.28
La0.72Ce0.28Ru2,1.278
La1Pt0.1Ni0.9Si1,1.275
Ce1Ir1In5,1.273
La0.9795Sm0.0205,1.27
Cr0.808Ru0.182,1.27
La0.8Y0.2Ni1C2,1.26
Ho1Rh0.8Ir3.2B4,1.26
La1Pd2Ge1.9Sn0.1,1.25
U0.89Mo0.11,1.25
La98Lu0.815Tb1.185,1.248
Sr2Ru1O4,1.242
Nb1Pt1Si1,1.24
Ce1Co1In4.9095Sn0.0899Hg0.025,1.24
Pd45.9Ni5.1Sb49,1.23
La1Ni1Si1,1.23
Pd50.93625Fe0.06375Sb49,1.22
Ce1Co1In4.91Sn0.09,1.22
La1Pt2Si2,1.22
Sn0.95In0.05Te1,1.21
Ba1Ag0.5Si1.5,1.21
Sr2Ru1O4,1.201
La1.85Sr0.15Cu0.9725Zn0.0275O4,1.2
Cu70Sn30,1.2
Ho0.0422La0.9578,1.2
Na1Sn2As2,1.2
Ce0.6Yb0.4Co1In5,1.2
Ce0.85Yb0.15Co1In5,1.19
Ce1Co1In4.91Sn0.09,1.19
Th0.99975U0.025,1.182
Na1Sn2As2,1.18
Al1,1.1793
Al1,1.175
Pr0.4La0.6Os4Sb12,1.172
Dy1Rh0.8Ir3.2B4,1.17
Nb2Pd1S3Se2,1.17
Ta1Se0.8Te1.2,1.165
Al1,1.163
U0.99Gd0.01Pd2Al3,1.16
Ce1Rh1In5,1.16
Al1,1.159
U1Ni2Al2.98,1.155
Ce1Au2Si2,1.15
La1Nb2Al20,1.15
U0.98Ni2Al3,1.145
Mo1Te1.78S0.22,1.143
Cu40Zr60,1.14
Cu19.6Zr78.4Mn2,1.14
U1Ni2.02Al3,1.14
Y1Pd2Ge2,1.14
K1Hg1C4,1.135
U1Ni2Al3.02,1.135
Al0.992Zn0.008,1.132
Sr2Ru0.9995Ti0.0005O4,1.13
Pd49.75V0.25Sb50,1.13
U1Ni1.98Al3,1.13
Ru0.7Rh0.3P1,1.13
Ag0.002Al0.998,1.128
U1Ni2Al3,1.126
Mo1Te1.8Se0.2,1.12
Pr1Ti2Al20,1.12
Ba1Pd0.4Si1.6,1.11
Ce1Co0.91Pt0.09In5,1.11
Lu1Pt0.88Pd1.12In1,1.109
Lu1Pt0.92Pd1.08In1,1.103
Zr41.2Ti13.8Cu12.5Ni10Be22.5,1.1
Y1Pd2Ge2,1.1
Te2U1,1.1
Ba1Ni2As2,1.095
Sn0.8075Ge0.1425In0.05Te1,1.09
U2Pt0.9Rh0.1C2,1.09
Ba1Nb2S5,1.09
Ga1,1.083
Sr2Ru1O4,1.08
Ga1,1.078
Rh0.35V0.65,1.075
Pb4Ag1Bi6Se14,1.075
La0.9978Ce0.0022Rh3B2,1.07
Th90.9Tm9.1,1.07
Al0.99Li0.01,1.07
Ce1Rh1Si3,1.07
Ga1,1.061
Cu1Ir1.8Pt0.2Se4,1.06
Ce1Co0.91Pt0.09In5,1.05
Ce1Ir1In4.996Sn0.004,1.043
Yb1,1.04
Pd50.8725Fe0.1275Sb49,1.03
Sc1V2Al20,1.03
Ag7N1O11,1.025
Ce1Co1In4.9Sn0.1,1.02
Ti0.98Ta0.02Se2,1.02
Sn0.956In0.044Te1,1.017
Pr0.75Ce0.25Pt4Ge12,1.015
Th0.9995U0.05,1.014
Pr0.55Nd0.45Os4Sb12,1.01
Sm0.04La0.96Ni1C2,1.01
Fe14.3U85.7,1
Y1Fe2Ge2,1
Lu1Pt0.96Pd1.04In1,1
Ce1Ir1In4.955Hg0.045,0.993
Cd2Re2O7,0.99
Ce1Ir1In4.95Cd0.05,0.99
U1Be12.9558B0.0442,0.988
Mo1Te1.82S0.18,0.981
Fe22U78,0.98
Y1Pt1Bi1,0.98
Ba4Sr2Nb10O30,0.98
Th81.3Tm18.7,0.97
La1Pd2As2,0.97
Ba5Sr1Nb10O30,0.96
Y1Pd2P2,0.96
Be13U1,0.956
Ce1Ir1In4.973Hg0.027,0.955
Sr2Ru1O4,0.954
Pb0.985Tl0.01In0.005Te1,0.954
La1Pt1.94Ge2.06,0.95
Ba1Nb2S5,0.95
Be13U1,0.941
La0.988Tb0.012Al2,0.94
Mn1P1,0.94
Sn0.979In0.021Te1,0.936
La0.995Gd0.005Al2,0.932
Ir1Sn4,0.93
Be13U1,0.92
Be13U1,0.911
Mo0.4Rh0.6,0.91
Pd50.745V0.255Sb49,0.91
La98Lu0.754Tb1.246,0.907
Be13U1,0.9035
Pr0.2La0.8Os4Sb12,0.903
Lu1Pt0.72Pd1.28In1,0.903
Mo1,0.902
Be13U1,0.9015
Zr41.2Ti13.8Cu12.5Ni10Be22.5,0.9
Th0.9985U0.0015,0.9
Y1Fe2Ge2,0.9
La1Ir1Si3,0.9
Ce1Ir0.987Pt0.013In5,0.897
Sr1Ni2Ge2,0.895
Mo1Te1.84S0.16,0.893
Be13U1,0.89
La2Ni2In1,0.89
K0.45W1O3,0.885
Th1Ni1Si1,0.875
Eu2.5Sr0.5Bi2S4F4,0.87
Zn1,0.867
Be13U1,0.865
Ce0.875La0.125Co1In5,0.86
Y6Nb4Al43,0.86
Zn1,0.857
Zn1,0.855
La1Pd2Al3,0.85
Be13U1,0.8493
Sr1Pt1Ge3,0.84
P1W1,0.834
Mo1Te1.88S0.12,0.832
U1Pd2.02Al3,0.83
La1Pt1.97Ge2.03,0.83
Zn1,0.825
Lu1Pt0.6Pd1.4In1,0.822
Ce1Rh0.45Ir0.55In5,0.82
La1Pd2Ge1.96Sn0.04,0.82
Pb0.982Tl0.01In0.008Te1,0.818
Pr1Os2Ru2Sb12,0.81
Ce1Co1In4.88Sn0.12,0.81
Ce1Ir1In4.986Sn0.014,0.8
Bi0.5Sn0.5,0.788
Be13U1,0.786
Ta1Se1.7Te0.3,0.785
Cu40Zr60,0.78
Co14.3U85.7,0.78
Ce0.85La0.15Co1In5,0.78
U0.94Mo0.06,0.78
Th99.92U0.08,0.77
Ce1Co1In4.8488Sn0.0889Hg0.062,0.77
U1Co1Ge1,0.766
Ag0.005Zn0.995,0.763
Ba1Ni2As1.902P0.098,0.763
Th0.998U0.002,0.761
U1Co1Ge1,0.76
Ge2U1,0.752
Ce1Co1Ge3,0.75
U0.85Pt0.15,0.75
Ce1Pt3Si1,0.748
Ce1Pt3Si1,0.745
La1Os4Sb12,0.741
Cu50Zr50,0.74
Ce0.83Nd0.17Co1In5,0.74
Al6Re1,0.74
Mo1Te1.72S0.28,0.736
Ce1Ir0.978Pt0.022In5,0.734
Th0.05Zr0.95,0.73
La0.6Ce0.4Ru2,0.727
Th0.999U0.1,0.725
B3Be1.09,0.72
O0.92Ti1,0.72
Ta1S2,0.7145
Gd0.002Th0.998,0.714
Co0.01Mo99.99,0.71
Ce1Cu2Si2,0.71
Sn0.57Pb0.38In0.05Te1,0.703
Al99.925Mn0.075,0.7
U0.94Mo0.06,0.7
Nd1Pt4Ge12,0.7
Pr1Pt4Ge9.5Sb2.5,0.69
Au64Ge22Yb14,0.68
Y6Ta4Al43,0.68
Ce1Cu2Si2,0.677
Cd0.02Zn0.98,0.675
Os1,0.671
Th70.2Tm29.8,0.67
Be13U0.9934Th0.0066,0.67
Lu1Pt1.2Pd0.8In1,0.67
Sr1Ti1O3,0.67
La0.46Ce0.54Ru2,0.668
U1Co1Ge0.98Si0.02,0.667
U0.9911Th0.0089Be13,0.66
Sr1Ni2As2,0.66
Ce1Ir1In4.97Sn0.03,0.66
Th0.99873U0.127,0.658
Au0.64Ge0.22Yb0.14,0.655
Th0.999U0.001,0.654
Be13U0.9899Th0.0101,0.65
Ce1Co1Ge3,0.65
Be13U1,0.65
Fe0.008Mo99.992,0.645
Ce1Co1Ge3,0.64
U0.92Gd0.02Pd2Al3,0.64
Ba1Ni2As1.972P0.028,0.634
La98Lu0.697Tb1.303,0.632
Ce1Pt3Si0.97Ge0.03,0.63
U0.99Th0.01Be13,0.63
Cd0.2Zn0.8,0.628
U0.97Th0.03Be13,0.623