formula,Tc
Th1Ir0.8Os1.2,3.22
Sr1Pd1.94Pt0.06Ge2,3.22
Cr0.1V0.9,3.21
Y0.5Lu0.5Ir4B4,3.21
Co0.5Ni0.5Zr2,3.21
Si0.132Zr0.868,3.21
Lu1Ni1B0.8C1.2,3.2
Ca1Cu0.25Si1.7,3.2
S2Ta1,3.2
Cd1C1Ni3,3.2
Y4Rh6Sn19,3.2
Lu4Ir6Sn19,3.2
In1Te1,3.2
Au0.33La0.67,3.2
Bi3Rh1,3.2
C1Ir1Mo3,3.2
H1.33N0.33O3W1,3.2
Pt1V3,3.2
Mo5S6Zn1,3.2
In1Mg2,3.2
Si2Th1,3.2
Tm1Ni1.91Co0.18B2C1,3.2
La0.9997Ce0.0003Pt1Si1,3.2
La1Os4As12,3.2
K2.9Ba4.9Si46,3.2
Pb1Mo6S4Se4,3.2
Nd1Pt1.5Au0.6B2C1,3.2
Rh0.02Ti0.98,3.2
Hf1Os1As1,3.2
Pt0.25V0.75,3.2
Mo1N1,3.2
Tb5Os4Si15,3.2
Pd2Zr1Al1,3.2
La3Pr0.6In1,3.2
Pd2Hf0.75Y0.25Al1,3.2
In2O3,3.2
Pr1Fe1P1O1,3.2
Sr2Ru1O4,3.2
Cu0.29Bi2Se3,3.2
Lu1.9Sc0.1Ir3Si5,3.2
Sr1Pd1.8Ni0.2Ge2,3.2
Ir0.53Rh0.42Te2,3.2
Ba4Ir8Ge28,3.2
Pb0.445Sn0.445In0.13Te1,3.2
Pr1Bi1S2F0.5O0.5,3.2
Ba1Ag0.3Si1.7,3.2
Ba1Au0.3Si1.7,3.2
Ba1Ag0.2Si1.8,3.2
Bi2.13F0.17S2O0.83,3.2
Zr1Ru1As1,3.2
Zr1Hf1As1,3.2
Lu3Os4Ge13,3.2
Nd1Pd0.77Bi2,3.2
Bi0.9Pb0.1Pd1,3.2
Au1Be1,3.2
Se2Ta1.06,3.2
Ta2Pd1S5,3.2
La0.25Ce0.75Ru2,3.196
Ir0.03Zr0.97,3.19
Li2Pt3B1,3.19
Co25Zr75,3.18
B1W2,3.18
In0.78Tl0.22,3.18
Ca1Tl2.4Pb0.6,3.18
Pt1V3,3.18
Nb2Pd1S4.25Se0.75,3.18
La0.9Th0.1Ir3,3.18
Ni20Zr80,3.17
Sr1Ga0.7Si1.3,3.17
Si2Th1,3.16
Sr1Ta2S5,3.16
Sn0.025V0.975,3.16
Th1Ir1.2Os0.8,3.16
Sr1Pd1.96Pt0.04Ge2,3.16
Y0.9Ca0.1C2,3.15
Ta1Ru1Si1,3.15
Bi4Rh1,3.15
Bi3Rh1,3.15
La1Ni0.95Cu0.05C2,3.15
La3Ru8B6,3.15
Ce0.8Nd0.2Bi1S2F0.7O0.3,3.145
Ba1Ta2S5,3.14
Si2Th1,3.14
Tm1.4Y3.6Rh6Sn18,3.14
Y5Rh6Sn18,3.14
Ba0.95Na0.05Ti2Sb2O1,3.14
In1,3.14
Pt5Th1,3.13
Tm2Fe3Si5,3.13
Hf1P1.45S0.55,3.13
La98Lu1.4Tb0.6,3.127
Cr0.74Re0.26,3.12
Co28Zr72,3.12
B1Ta2,3.12
Ba8Si28Ge18,3.12
Ru0.475V0.525,3.12
Zn1Mo5S6,3.12
H0.59Nb0.72Pd0.28,3.12
Li2Pt3B1,3.12
Sr1Pd2Ge2,3.12
La1Ru2.925Fe0.075Si2,3.12
Sr0.5Ce0.5F1Bi1S1Se1,3.12
Ru27Zr73,3.11
Pb1S3Ta1,3.11
Pb1Ta1S3,3.11
Zr2Co0.5Ni0.5,3.11
Sn0.6723Pb0.1677In0.16Te1,3.11
La0.7Sm0.3Bi1S2F0.5O0.5,3.11
Pb1Ta1Se2,3.11
Ca1Cu0.25Si1.75,3.1
Ni27Zr73,3.1
Ce0.013La0.987,3.1
Al1Nb3,3.1
Au1Pb2,3.1
B1Hf1,3.1
Co0.5Ni0.5Zr2,3.1
Cr1,3.1
Cr0.03Sc0.97,3.1
Ge0.6Pd0.4,3.1
Dy1Ni1.99Co0.02B2C1,3.1
Er1Ni1.9Co0.1B2C1,3.1
Rb0.1Li0.05W1O2.85F0.15,3.1
Rh0.03Zr0.97,3.1
Y5Ir4Si10,3.1
Th1Ir0.2Ru1.8,3.1
Y2Pd1Ge3,3.1
Si2Sr1,3.1
Ti2In1C1,3.1
Y1Rh2Si2,3.1
Pd2Zr1In1,3.1
Nd1Fe1P1O1,3.1
La3Rh4Sn13,3.1
K1Fe2As2,3.1
Ni0.05Zr1Te3,3.1
Sr1Pd1.8Ni0.2Ge2,3.1
Lu2Ir2.7Rh0.3Si5,3.1
Lu1.92Sc0.08Ir3Si5,3.1
C1,3.1
La1Bi1S2F0.3O0.77,3.1
La1Bi1S2F0.5O0.5,3.1
La1Ir1As1,3.1
Sr0.55La0.45Bi1S2F1,3.1
La0.75Y0.25F0.5Bi1S2O0.5,3.1
Sn0.8In0.2Te1,3.1
Bi1.6Pb0.4Pd1,3.1
Sr0.1Bi2Se3,3.1
Zr62.4Ti15.6Ni22,3.09
Nb1Se3Sn1,3.09
Sc0.3Y0.7Ir3.6Rh0.4B4,3.09
Cu0.4Bi2Se3,3.09
Pb1.13Ta1S3.13,3.08
Mo0.15Pa0.85,3.08
Au1Th2,3.08
Lu1Ir2Rh2B4,3.08
Fe0.025Ti0.975,3.08
Pd0.19Ti0.81,3.08
B3Re7,3.08
La0.71Ce0.29Ir3,3.08
K1Fe2As2,3.075
Ga1,3.07
Nb0.45Rh0.55,3.07
Nb0.9Rh1.1,3.07
Pb1Ta1S3,3.07
Y0.4Lu0.6Ir4B4,3.07
Li2Pd0.48Pt2.52B1,3.07
Ir0.97Pt0.03Te2,3.07
Nb0.5Os0.5,3.07
Pd2Y0.25Tm0.75Sn1,3.06
Ni21Zr79,3.06
Ni16Zr84,3.06
La0.85Y0.15,3.06
Y0.6Lu0.4Ir4B4,3.06
Sr0.15Bi2Se3,3.06
Na0.2W1O3,3.05
Pd2Lu1Sn1,3.05
B1Mo1.75Ta0.25,3.05
Nb0.5Sb0.25Ti0.25,3.05
Bi1Nb3,3.05
Cu0.7Zn0.3Ir2S4,3.05
U6Fe0.5Co0.5,3.05
Mo0.0905Ti0.9095,3.05
Th0.9La0.9Ru2,3.05
Ti0.25Nb0.5Sb0.25,3.05
Y2Ir3Si5,3.05
H0.46Nb0.69Pd0.31,3.05
Cu0.01Ta1S2,3.05
Ni0.05Ta1S2,3.05
Sr0.15Bi2Se3,3.05
Ir3Th1,3.05
La1Pt1Ge1,3.05
Ta1S0.4Se1.6,3.04
La0.96Nd0.04Pt1Si1,3.04
Y0.2Lu0.8Ir4B4,3.04
Cu1Co1.99Ir0.01S4,3.04
Sr1Pd2Ge2,3.04
Sr0.5La0.5Bi1S2F1,3.04
La0.9647Ce0.0333Sn3,3.03
Pr0.9Ce0.1Pt4Ge12,3.03
Mo2C1,3.03
As2Cd1Ge1,3.02
Os0.25W0.75,3.02
Lu1Pd2Sn1,3.02
Sn1Nb1Se3,3.02
Pd0.5Au0.5Pb2,3.02
Pt0.33W0.67,3.02
In1Sc1Au2,3.02
Cu0.1Ti1Se2,3.02
Ba1Cu0.2Si1.8,3.02
Eu0.5Ce0.5F1Bi1S1.6Se0.4,3.02
Pd0.01Ta1S2,3.02
Re0.1Mo0.9,3.02
La0.9Ce0.1Ru2,3.012
Pb2Pd1,3.01
Sc0.2Y0.8Ir3.6Rh0.4B4,3.01
Sc0.5Y0.5Ir3.6Rh0.4B4,3.01
La1Bi1S0.6Se1.4F0.5O0.5,3.01
La1.82Sr0.18Cu0.97Co0.03O4,3
Bi2Sr2Cu1O6.18,3
Sr11Ca10Cu24O41,3
Na0.32Co1H2.6O3.3,3
La1.84Ce0.16Cu1O4,3
Ca1Cu0.25Si1.6,3
Sb1.16Ta2S5.16,3
Rb0.27W1O2.93,3
Rb0.33Ta1S2,3
Co1Zr2,3
Ni17Zr83,3
Te2Mo6Se6,3
Sb1.16S5.16Ta2,3
Ag1Bi2,3
Au0.5Rh0.4Ti0.91,3
B6Nd1,3
Ba1,3
Co0.5Fe0.5U6,3
Fe0.25Ni0.75U6,3
Ir0.5Te0.5,3
Mo5S6Zn1,3
Nb0.85Rh0.15,3
Os2Zr1,3
Pt1Zr1,3
Re24Zr5,3
Nb0.85Rh1.15,3
Nb2.25V0.75Au1,3
Bi2Ir1,3
N0.906Zr1,3
Os1W3,3
Eu1Nd2S5,3
La1Ni1C2,3
Ho0.93La0.07Ni2B2C1,3
Cu0.7Zn0.3Ir2S4,3
Mo4P3,3
Y2Pd1Ge3,3
Y5Ir4Si10,3
Y1Os4P12,3
Ca1Al0.3Ga0.7Si1,3
Cu1Co1.9Cr0.1S4,3
Mn0.101Ti0.899,3
Re0.976W0.024,3
Ta0.7V0.3,3
As1Ga1,3
Zr0.75Pd0.25,3
Lu4.98Yb0.02Ir4Si10,3
La1Ni1P1O1,3
Ba1Ni2P2,3
Zn1N1Ni3,3
In1N1,3
Fe0.05Ta1S2,3
La1.875Ba0.125Cu1O4,3
Fe1Te1,3
Zr55Cu25Nb5Al10Ni5,3
Ca1Ir1Si3,3
Zr1Ru0.95Rh0.05P1,3
Ce1Bi1S2F0.5O0.5,3
La1Bi1S2F0.5O0.5,3
Te3Zr1,3
K1Fe2As2,3
Sr1Pd2Ge2,3
Ir0.5Pt0.5Te2,3
Bi3.9Cu0.1S3O4,3
Ir0.96Pt0.04Te2,3
Ba0.8K0.2Ti2Sb2O1,3
Ce0.6Nd0.4F0.5Bi1S2O0.5,3
Ba8Si38Al8,3
La1Bi1S1.4Se0.6F0.5O0.5,3
Ce0.6Nd0.4Bi1S2F0.5O0.5,3
La3Rh2Sn13,3
Ce1Bi3.6Pb0.4Te6,3
Ce1Bi3.5Pb0.5Te6,3
Ce1Bi3.4Pb0.6Te6,3
Ba1Cu0.3Si1.7,3
Bi2F0.2S2O0.8,3
Co7Y9,3
Ce1Bi1S2O1,3
La1Ru2.925Fe0.075Si2,3
Li1Fe0.981V0.019As1,3
Eu0.5La0.5F1Bi1S1.6Se0.4,3
Sr0.065Bi2Se3,3
Y5Rh6Sn18,3
Pd0.08Ta1S2,3
Ce1Ni1C2,3
Eu1Nb2S5,3
Pb2Pd1,3
Sn1Ta1S2,3
Ta1As1,3
Nb1Se2,3
Ba0.7K0.3Bi1O3,29.9
Dy1Ba1Sr1Cu3O6.7,29.9
Ca0.1Ba1.65La1.25Cu3O7.03,29.9
La1.65Sr0.35Cu0.9Ti0.1O4,29.9
Mg0.89Li0.11B1.88C0.12,29.9
Ba1Fe2As1.5P0.5,29.9
Y1Ba2Cu2.97Zn0.03O6.47,29.8
La1.85Sr0.15Cu0.995Ga0.005O4,29.8
C60Rb3,29.8
La1.8Sr0.2Cu1O4,29.8
La1.84Ba0.16Cu1O4,29.8
Ru0.925Rh0.075Sr2Gd1Cu2O8,29.8
Tl0.75K0.25Fe1.84Se2,29.8
Sr1Fe2As1.22P0.78,29.8
La1.89Ce0.11Cu1O4,29.75
Ba0.55K0.45Fe2As2,29.75
La1.887Sr0.113Cu1O4,29.7
La1.92Sr0.08Cu1O4,29.7
La2Cu1O4.047,29.7
Fe0.5Ba1Sr1Yb1Cu2.5O7.432,29.7
Ba0.4K0.6Fe2As2,29.7
La1.85Sr0.15Cu0.9Mg0.1O4,29.6
La1.92Sr0.08Cu1O4,29.6
La0.55Pr1.3Sr0.15Cu1O4,29.6
La1.825Sr0.175Cu0.99Ru0.01O4,29.6
N4H12Na2Cs1C60,29.6
C60Rb3,29.6
Mg0.8Al0.2B2,29.6
Cs0.8Fe2Se1.96,29.6
Sr1Fe2As1.3P0.7,29.6
C60Rb3,29.55
La1.9Sr0.1Cu1O3.98,29.5
Cs3C60,29.5
Ba0.62K0.38Bi1O3,29.5
La1.8Sr0.2Cu1O4,29.5
C60Rb3,29.5
Ba0.62K0.38Bi1O3.1,29.5
La1.885Sr0.115Cu1O4,29.5
La1.795Nd0.08Sr0.125Cu1O4,29.5
C60Cs3,29.5
Cs1.2Tl2.4C60,29.5
Ru0.7Sn0.3Sr2Eu1Cu2O8,29.5
Eu1Fe2As2,29.5
Ba0.55K0.45Fe2As2,29.5
Mg0.95Fe0.05B2,29.5
K0.8Fe2Se1.96,29.5
Rb0.76Fe1.62Se2,29.5
Nd1Fe1As0.7P0.3F0.1O0.9,29.5
La1.85Sr0.15Cu0.996Fe0.004O4,29.4
La1.9Sr0.1Cu1O4,29.4
Eu1Ba2Cu2.7Co0.3O6.95,29.4
La1.736Nd0.117Ca0.138Ba0.012Cu1O4,29.4
La1.85Sr0.15Cu0.99Zn0.01O4,29.4
La1.736Nd0.114Ca0.138Ba0.012Cu1O4.02,29.4
C60Rb3,29.4
La1.88Sr0.12Cu1O4,29.4
Ba0.625K0.375Bi1O3,29.4
Ba0.55K0.45Fe2As2,29.4
La1Fe1As1F0.1O0.9,29.4
Ba0.65Na0.35Fe2As2,29.4
Ca8La2Pt3.3Fe9.7As18,29.4
Ba0.7K0.6Bi1O3,29.35
La1.84Ba0.16Cu1O4,29.3
La2Cu0.99Zn0.01O4.099,29.3
La1.9Sr0.1Cu1O4,29.3
La1.89Sr0.11Cu1O4,29.3
La1.91Ba0.09Cu1O4,29.3
La1.885Sr0.115Cu1O4,29.3
La0.8Y0.2Fe0.997Mn0.003As1F0.11O0.89,29.3
Ca1K1Fe3.932Ni0.068As4,29.3
La1.89Sr0.11Cu1O3.986,29.2
Y0.55Pr0.45Ba2Cu3O7.01,29.2
Ba0.65K0.35Bi1O3,29.2
La1.9Sr0.1Cu1O4,29.2
La1.889Sr0.111Cu1O4,29.2
Ru0.925Ti0.075Sr2Gd1Cu2O8,29.2
Mg1B1.7C0.3,29.2
Eu1.007La0.793Sr0.2Cu1O4,29.2
Cs0.8Fe1.7Se2,29.2
Cs0.8Fe2Se2,29.2
Pr1Fe1As0.8P0.2F0.1O0.9,29.2
La1.9Sr0.1Cu1O4,29.1
La1.875Ba0.025Sr0.1Cu1O4,29.1
Ba0.63K0.37Bi1O3,29.1
La1.81Sr0.19Cu1O4,29.1
Ba0.6K0.4Bi1O3,29.1
La2Cu1O4.054,29.1
Mg0.8Al0.2B2,29.1
La1.9Ba0.1Cu1O4,29.1
La1.89Ba0.11Cu1O4,29.1
La1.85Ba0.15Cu1O4,29.1
La1.88Sr0.12Cu1O4,29.1
Ba1Fe2As1.36P0.64,29.1
La0.8Y0.2Fe0.995Mn0.005As1F0.11O0.89,29.1
Y1Ba2Cu2.76Zn0.24O7,29.05
Sr0.2La1.8Cu0.99Zn0.01O4,29
Ba0.6K0.4Bi1O3,29
La1.8Ba0.2Cu1O4,29
La1.85Ba0.15Cu1O4,29
La1.898Ba0.102Cu1O4,29
La1.858Ba0.142Cu1O4,29
Rb3C60C60,29
C60Rb2,29
C60Rb4,29
Y1Sr2Cu2.65Mo0.35O7.2,29
Dy2Ba4Cu7O14.61,29
Y1Ba2Cu2.9Ni0.1O6.71,29
Bi1.95Sr1.65La0.4Cu1F0.4O5.8,29
Nd1Ba2Cu3O6.67,29
Ba0.63K0.37Bi1O3,29
La1.736Nd0.116Ba0.15Cu1O4,29
Bi0.132Mo0.198Cu2.67Sr2Y1O7.2,29
Y0.3Pr0.7Ba2Cu4O8,29
La1.84Sr0.16Cu0.99Co0.01O4,29
Sm1Ba2Cu2.9Zn0.1O6.83,29
La1.9Sr0.1Cu1O4,29
La1.83Sr0.17Cu0.99Ni0.01O4,29
La1.78Sr0.22Cu1O4,29
La1.81Sr0.19Cu0.995Zn0.005O4,29
La1.9Sr0.1Cu1O4.01,29
La1.8Sr0.2Cu1O3.95,29
La1.91Sr0.09Cu1O4,29
La1.736Nd0.116Ba0.15Cu1O4.03,29
Eu0.6Pr0.4Ba1.6Sr0.4Cu3O7,29
Eu1Ba1.4Pr0.3Sr0.3Cu3O6.92,29
Ba0.644K0.356Bi1O3,29
Ba0.6K0.4Bi1O2.977,29
La1.82Sr0.18Cu0.97Fe0.03O4,29
Ba0.6Rb0.4Bi1O3,29
La1.8Sr0.2Cu1O4,29
La1.65Nd0.2Sr0.15Cu1O4,29
C60Rb3,29
Cs3Hg3.3C60,29
Mg0.8Al0.2B2,29
La1.92Ce0.08Cu1O4,29
La1.89Ce0.11Cu1O4,29
La1.92Ba0.08Cu1O4,29
La1.875Ba0.125Cu1O4,29
La1.85Sr0.15Cu0.99Ni0.01O4,29
Ba1Fe2As2,29
Eu1Fe2As2,29
Ca1Fe1As1F1,29
La1.67Sr0.33Cu0.94Co0.06O4,29
Fe2As2Sr4Mg0.6Ti1.4O6,29
Eu1Fe2As1.6P0.4,29
K0.86Fe2Se1.82,29
Ca1,29
Cs0.86Fe1.66Se2,29
Eu1Fe2As1.58P0.42,29
La1Fe1As1H0.35,29
Sm1Fe1As1F0.2O0.8,29
Ca1Fe1As1F0.8H0.2,29
La1Fe1As1F0.11O0.89,29
Th1Fe1As1,29
Cs1Eu1Fe4As4,28.7
La1.87Sr0.13Cu0.9975Zn0.0025O4,28.92
Ba0.6K0.4Bi1O3,28.9
Tm0.5Pr0.5Ba2Cu3O6.95,28.9
La1.9Sr0.1Cu1H0.1O4,28.9
Ca0.941Pr0.059Fe2As2,28.9
La1.91Ba0.09Cu1O4,28.8
La1.84Ba0.16Cu1O4,28.8
Sm1La0.8Sr0.2Cu1O3.95,28.8
La1.84Sr0.16Cu0.99Zn0.01O4,28.8
Ba0.584K0.416Bi1O3,28.8
Mg1B1.8C0.2,28.8
Ba1Fe2As1.34P0.66,28.8
Ca1Fe2As1.83P0.17,28.8
Pb0.6Cu0.4Sr0.8La1.2Cu1O5.06,28.7
La1.78Sr0.22Cu1O4,28.7
La1.85Sr0.15Cu0.9925Zn0.0075O4,28.7
Eu0.56K0.44Fe2As2,28.7
Ba0.4K0.6Fe2As2,28.7
Ba0.4Na0.6Fe2As2,28.7
La1Fe1As1H0.08O0.92,28.7
Eu1Fe1.4As2P0.6,28.7
C60Rb3,28.6
Er0.5Pr0.5Ba2Cu3O7,28.6
Ba0.6K0.4Bi1O3,28.6
La1.8Sr0.2Cu0.9952Zn0.0048O4,28.6
Mg0.7Zn0.15Al0.15B2,28.6
Ba1Fe2As2,28.6
La1Fe1As1F0.11O0.89,28.6
La1.81Sr0.19Cu0.94Fe0.06O4,28.6
La1Fe1As0.9Sb0.1F0.2O0.8,28.6
La1.9Sr0.1Cu1O4,28.5
Y1Ba2Cu2.9Fe0.1O6.7,28.5
Ba0.6K0.4Bi1O3,28.5
Y0.5Pr0.5Ba2Cu3O7,28.5
Ca1.5Na0.5Cu1Cl2O2,28.5
La1.85Sr0.09Ca0.034Ba0.026Cu1O4,28.5
Y0.7Pr0.3Ba2Cu3O6.6,28.5
Ba0.64K0.36Bi1O3,28.5
La1.845Nd0.04Sr0.115Cu1O4,28.5
Bi2Sr1.43La0.57Cu1O6,28.5
La1.891Ce0.109Cu1O4,28.5
C60Rb3,28.5
Mg0.9Li0.1B1.82C0.18,28.5
La1.85Sr0.15Cu0.992Zn0.008O4,28.5
La1Fe1As1F0.1O0.9,28.5
La1Fe1As1F0.11O0.89,28.5
Y1Ba2Cu3.88Ni0.12O8,28.5
Ba0.75K0.25Fe2As2,28.5
La0.8Y0.2Fe0.997Mn0.003As1F0.11O0.89,28.5
Bi1.5Pb0.5Sr1.6La0.4Cu1O6.055,28.4
La1.88Sr0.125Cu0.97O4,28.4
C60Rb3,28.4
La1.875Ba0.125Cu1O4,28.4
Gd1Sr2Ru0.8Cu2.2O8,28.4
La1.76Sr0.2Ho0.04Cu1O4,28.4
Ru0.9Sn0.1Sr2Eu1Cu2O8,28.4
La1Fe1As1O0.7,28.4
Ba0.5K0.5Fe1.96Mn0.04As2,28.4
La1.69Sr0.31Cu0.94Fe0.06O4,28.4
Tl0.63K0.37Fe1.78Se2,28.4
Ca8.77Nd1.23Pt3Fe10As18,28.4
Cs1Ca2Fe4As4F2,28.31
La1.825Ba0.175Cu1O4,28.3
Ca0.3Ba1.45La1.25Cu3O7,28.3
Ba0.63K0.37Bi1O3,28.3
La1.82Sr0.18Cu0.99Ru0.01O4,28.3
Mg1B1.5C0.5,28.3
La1Fe1As1O0.85,28.3
Ba0.75K0.25Fe2As2,28.3
La1.79Sr0.21Cu0.94Ni0.06O4,28.3
K0.8Fe2Se2,28.3
Y0.5Pr0.5Ba2Cu3O6.95,28.2
Ba0.6K0.4Fe2As2,28.2
Ca4Al2Fe2As2O6,28.2
Ca0.9La0.1Fe1As1H1,28.2
Cs1Ca2Fe4As4F2,28.2
Ca1K1Fe3.932Ni0.068As4,28.2
Bi1.5Pb0.5Sr1.6La0.4Cu1O6.044,28.1
Y1Ba1.8La0.2Cu3O6.6,28.1
Y0.9Ca0.1Ba2Cu3O6.3,28.1
Pb0.6Cu0.4Sr0.8La1.2Cu1O5.28,28.1
Pb0.5Cu0.5Sr0.9La1.1Cu1O5.16,28.1
La1.78Sr0.22Cu1O4,28.1
Mg0.94Ir0.06B2,28.1
Ca0.81La0.19Fe1As2,28.1
Ca8.41Nd1.59Pt3Fe10As18,28.1
Ba0.15La1.85Cu1O4,28
Y2La1Ba3Cu6O14.17,28
La2Cu1O4.13,28
Y1Ba2Cu3O6.3,28
Ba0.77K0.23Bi1O3,28
La1.85Ba0.15Cu1O4,28
Ba0.6K0.4Bi1O3,28
Bi1.4Pb0.6Sr1.6La0.4Cu1O6.068,28
La2Cu1O4,28
La1Ba1Ca1Cu2.7Ni0.3O6.848,28
C60Rb3,28
Y1Sr2Cu2.7W0.3O6.9,28
Nd2Cu1F0.3O3.7,28
La1.82Sr0.18Cu1O3.972,28
Eu1.4Ba1.6Cu3O7.16,28
La1.9Sr0.1Cu1O4,28
La1.929Na0.071Cu1O4,28
Bi1.95Sr1.85Pr0.2Cu1O4,28
La1.8Sr0.2Cu1O4,28
Ba1K1Bi1O3,28
Y0.8Ca0.2Sr1.5Ba0.5Cu2.8Cr0.2O7,28
Ca1La1Ba1Cu2.88Fe0.12O7,28
Pb0.6Cu0.4Sr1.1La0.9Cu1O5.18,28
Pb0.5Cu0.5Sr1La1Cu1O5.15,28
Pb0.5Cu0.5Sr0.8La1.2Cu1O5.16,28
La0.6Pr0.6Ba1Ca1Cu3O7,28
Pb0.5Tl0.5Sr4Cu2C0.7N0.3O10,28
La1Pr0.85Sr0.15Cu1O4,28
La0.97Pr0.85Sr0.18Cu1O4,28
Dy0.8Ca0.2Ba2Cu2.7Zn0.3O6.78,28
Y1Ba2Cu2.931Zn0.069O6.7,28
Y1Ba2Cu2.919Zn0.081O6.83,28
La2Cu1O4.04,28
Pr1.5Ce0.5Sr2Cu2Nb1O10,28
La1.85Sr0.15Cu0.99Zn0.01O4,28
La1.55Ca0.15Nd0.3Cu1O4,28
La1.87Ca0.13Cu1O4,28
Tm1Ba2Cu3O6.44,28
Eu0.6Pr0.4Ba1.7Sr0.3Cu3O6.93,28
Eu1Ba1.5Pr0.3Sr0.2Cu3O6.81,28
Hg1Ba2Cu0.97Zn0.03O4.027,28
Nd1.5Ce0.5Sr2Nb1Cu2O10,28
Gd1.25Ba1.75Cu3O6.98,28
Ga1Sr2Tm0.75Ca0.25Cu2O7,28
Ca1.65Na0.35Cu1Cl2O2,28
Mg0.75Al0.25B2,28
K3N1H3C60,28
Mg1B1.8C0.2,28
Mg1B1.87C0.13,28
Bi0.5La1.5Sr1Cu2O6.02,28
La1Fe1As1F0.11O0.89,28
La0.85Na0.15Fe1As1F0.15O0.85,28
La1Fe1As1F0.1O0.9,28
Fe2As2Sr4Mg0.4Ti1.6O6,28
Eu1Fe1As1.64P0.36,28
Tl0.45K0.34Fe1.84Se2,28
Fe2As2Sr4Sc1.8Ti1.2O8,28
Tl0.4K0.3Fe1.7Se2,28
Ca0.79La0.21Fe1As2,28
Ca8.45Sm1.55Pt3Fe10As18,28
Ca0.77La0.23Fe1As1.99P0.01,28
Ca0.81La0.19Fe1As2,28
Sm1Fe1As0.77P0.23H0.11O0.89,28
Nd1Fe1As0.6P0.4F0.1O0.9,28
Rb0.75Fe1.6Se1.5S0.5,28
La1.85Sr0.15Cu0.986Ni0.014O4,27.9
La1.9Sr0.1Cu1O4,27.9
Ba0.65K0.35Bi1O2.984,27.9
La1.91Sr0.09Cu1O4,27.9
La1.85Sr0.15Cu0.99Zn0.01O4,27.9
La1Fe1As1F0.11O0.89,27.9
Sr1Fe2As1.4P0.6,27.9
Ca9La1Pt3Fe10As18,27.9
La0.77Y0.23Fe0.995Mn0.005As1F0.11O0.89,27.9
Nd1.4Cu1O4,27.85
La1.875Sr0.125Cu1O4,27.84
La1Fe1As1F0.05O0.95,27.84
Y1Ba2Cu2.8Fe0.2O6.76,27.8
La1.9Sr0.1Cu1O4,27.8
Dy0.5Pr0.5Ba2Cu3O6.9,27.8
Ca1.6Na0.4Cu1Cl2O2,27.8
Pb0.6Cu0.4Sr0.9La1.1Cu1O5.24,27.8
Y0.6Pr0.4Ba2Cu3O6.85,27.8
La1.85Sr0.15Cu0.992Zn0.008O4,27.8
La1Fe1As1O0.89,27.8
Ba0.63K0.37Bi1O3,27.7
Y1Ba2Cu3.92Zn0.08O8,27.7
Y0.69Ca0.31Ba2Cu3O6,27.7
Ca1.7Na0.3Cu1Cl2O2,27.7
Ca1.81Na0.19Cu1Cl2O2,27.7
Ba0.6K0.4Bi1O2.926,27.6
Bi2Sr1.6La0.4Cu1O6.307,27.6
Eu0.64K0.36Fe2As2,27.6
Ce1Fe1As1F0.08O0.92,27.6
La1.885Sr0.115Cu1O4,27.57
La1.8Sr0.2Cu1O3.99,27.5
Ba0.625K0.375Bi1O3,27.5
Ca1.7Na0.3Cu1Cl2O2,27.5
Eu0.5Pr0.5Ba2Cu4O8,27.5
La1.805Nd0.08Sr0.115Cu1O4,27.5
La1.825Sr0.175Cu1O4,27.5
La1.45Ca0.15Nd0.4Cu1O4,27.5
Ru1Sr2Gd1Cu2O8,27.5
Ca1.8Na0.2Cu1Cl2O2,27.5
Mg1B1.9C0.1,27.5
C60Rb3,27.5
La1.91Sr0.09Cu1O4,27.5
La1Fe1As1F0.11O0.89,27.5
La1Fe0.985Ru0.015As1F0.11O0.89,27.5
La1Fe1As1H0.15,27.5
Ba0.75K0.25Fe2As2,27.5
Y0.7Pr0.3Ba2Cu3O6.85,27.4
La1.78Sr0.22Cu1O4,27.4
Cs0.8Fe2Se1.96,27.4
Ba1Fe1.8Ir0.2As2,27.4
La1Fe0.98Ru0.02As1F0.11O0.89,27.4
Ba0.575K0.425Bi1O3,27.3
Ba0.665K0.335Bi1O2.985,27.3
La1.91Sr0.09Cu1O4,27.3
La1.76Sr0.2Ho0.04Cu1O4,27.3
La1Fe1As1F0.11O0.89,27.3
Ba0.6K0.4Bi1O3,27.25
Y0.7Pr0.3Ba2Cu3O6.5,27.2
La1.85Sr0.15Cu0.95Li0.05O4,27.2
H0.19La1.8Sr0.2Cu0.995Fe0.005O4,27.2
Mg1B1.85C0.15,27.2
Ca1.82Na0.18Cu1Cl2O2,27.11
La1.85Sr0.15Cu0.992Al0.008O4,27.1
Y0.5Pr0.5Ba2Cu3O6.68,27.1
La1.65Nd0.2Ca0.122Ba0.028Cu1O4,27.1
La1.92Sr0.08Cu1O4,27.1
La1.65Nd0.2Ca0.122Ba0.028Cu1O3.99,27.1
Mg0.79Al0.21B2,27.1
Mg0.7Al0.3B2,27.1
La1Fe1As1F0.11O0.89,27.1
Nd1Fe0.98Mn0.02As1F0.11O0.89,27.1
Sr0.6La0.4Fe1As1F1,27.05
Y1Ba2Cu2.7Zn0.3O7,27
Ba0.6K0.4Bi1O3,27
Bi2Sr2Eu1.64Ce0.36Cu2O10.26,27
Bi2Sr2Dy1.64Ce0.36Cu2O10.26,27
Y1Ba2Cu2.79Zn0.21O7,27
Ba0.65K0.35Bi1O3,27
La1.922Ba0.078Cu1O4,27
La1.8Sr0.2Ca1Cu2O6,27
Nd2Cu1F0.2O3.8,27
Nd2Cu1F0.3O3.7,27
Y1Sr2Cu2.7Co0.3O6.7,27
Bi1.95Sr1.85La0.2Cu1O4,27
Sm1.5Ce0.5Sr2Cu2Nb1O10,27
Y0.65Ca0.35Sr2Cu2Ga1O7,27
Y0.65Ca0.35Sr2Cu2Ga1O6.99,27
Y0.65Ca0.35Sr2Ga1Cu2O7,27
La1.2Ba1.8Cu3O7.2,27
La1.2Ba1.8Cu3O7.3,27
Nd2Cu1O4,27
Nd2Cu1F0.24O3.76,27
La1.85Sr0.06Ca0.05Ba0.04Cu1O4,27
La1.84Ba0.16Cu1O4,27
La1.9Sr0.1Cu1O4,27
La1.888Sr0.112Cu1O4,27
La1.875Sr0.125Cu1O4,27
La0.95Pr0.85Sr0.2Cu1O4,27
Tl1Sr1.2La0.8Cu1O5,27
La1.785Nd0.1Sr0.115Cu1O4,27
La1.775Nd0.1Sr0.125Cu1O4,27
La1.2Ba1.5Ca0.3Cu3O6.72,27
La1.79Sr0.21Cu1O4,27
Bi1.6Sr0.4Yb0.75Ca0.25Cu3O6.072,27
La1.8Sr0.2Cu0.99Zn0.01O4,27
La1.8Sr0.2Cu0.9928Zn0.0072O4,27
La0.55Ca0.15Pr0.3Ba1.5Sr0.5Cu3O6.851,27
La1.88Sr0.12Cu1O4,27
Ca1.82Na0.18Cu1Cl2O2,27
K1Rb2C60,27
Mg1B1.9C0.1,27
Y1Sr2Nb0.9Cu2.1O7.9,27
La1.905Ba0.095Cu1O4,27
La1Fe1As1O0.6,27
Sr1Fe2As2,27
Pr0.88La1Ce0.12Cu1O3.908,27
Mo1Sr2Ho1Cu2O8,27
Sm1Fe1As1F0.14O0.86,27
La1Fe1As1F0.11O0.89,27
Ca4Al2Fe2As2O5.785,27
Sr1Fe2As1.3P0.7,27
Sr1Fe2As1.2P0.8,27
Ba1Fe1.7Ir0.3As2,27
Fe2As2Sr4V2O6,27
La1Fe1As1F0.1O0.9,27
La1Fe1As0.6P0.4F0.1O0.9,27
Eu1Fe2As2,27
La0.34Na0.66Fe2As2,27
La0.2Na0.8Fe2As2,27
Ca10Pt4.3Fe9.7As18,27
La1.9Ba0.1Cu1O4,26.9
La1.836Sr0.164Cu0.99Ga0.01O4,26.9
La1.5Ba1Sr0.5Cu3O6.955,26.9
Ca1.76Na0.24Cu1Cl2O2,26.9
La1.83Ba0.17Cu1O4,26.9
La1.9Sr0.1Cu1O4,26.9
Ca8.77Pr1.23Pt3Fe10As18,26.9
La1Fe1P0.6As0.6F0.1O0.9,26.9
Y1Ba2Cu3O6.45,26.85
La1.75Sr0.25Cu1H0.1O4,26.8
La1.85Sr0.15Cu0.975Ni0.025O4,26.8
Sm1Fe1As1F0.14O0.86,26.8
Ca4Al2Fe2As2O5.65,26.8
Sr1Fe2As1.08P0.92,26.8
Ca4Al2Fe2As2O6,26.8
Ba0.5K0.5Fe1.9Ni0.1As2,26.75
Nd0.95Pr0.05Ba2Cu3O6.65,26.7
Eu0.5Pr0.5Ba2Cu3O7,26.7
La1.8Nd0.2Cu1O4.059,26.7
Mg0.7Al0.3B2,26.7
Ba1Fe2As0.76P1.24,26.7
La0.8Y0.2Fe0.995Mn0.005As1F0.11O0.89,26.6
Rb1Eu1Fe4As4,26.6
Sr2Cu1C0.91B0.09O5,26.5
Bi1.95Sr1.65La0.4Cu1O6.343,26.5
Nd1.45Ba1.55Cu3O7.08,26.5
Sm1Ba1.8Pr0.2Cu3O7.04,26.5
La1.885Sr0.115Cu0.965Li0.035O4,26.5
La1.81Sr0.19Cu0.99Ru0.01O4,26.5
Ca1.75Na0.25Cu1Cl2O2,26.5
La1.834Sr0.166Cu0.99Zn0.01O4,26.5
La1.83Sr0.17Cu0.94Fe0.06O4,26.5
Ca10Pt4.054Fe9.7As18,26.5
La1.87Sr0.13Cu0.995Zn0.005O4,26.44
Y1Ba2Cu3O6.43,26.4
La1.87Sr0.125Cu1.07O4,26.4
Nd1.85Ce0.15Cu1O4,26.4
Ca0.1Ba1.65La1.25Cu3O7.02,26.4
La1.8Sr0.2Cu0.99Zn0.01O4,26.4
La1.85Sr0.15Cu0.99Zn0.01O4,26.4
Ba0.6K0.4Bi0.99Pr0.01O3,26.4
Ca1.8Na0.2Cu1Cl2O2,26.4
Rb2K1C60,26.4
La1.81Sr0.19Cu0.94Ni0.06O4,26.4
La1.73Nd0.12Sr0.15Cu1O4,26.3
La1.895Sr0.105Cu1O4,26.3
La1.8Nd0.2Cu1O4.04,26.3
La1Fe1As1F0.05O0.95,26.3
Sr1Fe2As2,26.3
La1Fe1As1F0.11O0.89,26.3
Ba1Fe1.84Co0.16As2,26.3
La1.85Sr0.15Cu0.993Fe0.007O4,26.25
Tl0.4K0.3Fe1.7Se2,26.25
Tl0.4K0.3Fe2Se2,26.25
Rb0.8Fe2Se1.9Te0.1,26.25
Sm1.35Ba1.65Cu3O7.07,26.2
La1.9Sr0.1Cu1O4,26.2
Y1Ba2Cu2.95Fe0.05O6.6,26.2
Y0.5Pr0.5Sr2Cu2.85Re0.15O7,26.2
Ba0.66K0.34Bi1O3,26.2
Mg1B1.5C0.5,26.2
Sr2Mg0.5Ti0.5Fe0.95Co0.05As1O3,26.2
La1Fe1As1F0.15O0.85,26.2
Ca9.29Sm0.71Pt3Fe10As18,26.2
Bi1.8Pb0.2Sr2Ca1Cu1.84Fe0.16O8,26.1
La1.84Ba0.16Cu1O4,26.1
La1.8Sr0.2Cu0.995Zn0.005O4,26.1
La1.85Sr0.15Cu0.96Ti0.04O4,26.1
Mg0.6Al0.2Li0.2B2,26.1
Ca8.55La1.45Pt3Fe10As18,26.1
Ca0.74La0.26Fe1As2,26.1
La1Fe1As0.6P0.4F0.14O0.86,26.1
La1Fe1As0.5P0.5F0.14O0.86,26.1
Gd1Sr2Ru0.95Cu2.05O8,26.05
La2.6Ba3.4Cu6O14.06,26
La1.9Sr0.1Cu1O4,26
Bi1Pb1Sr1.26La0.26Cu1O6,26
La1.903Ba0.097Cu1O4,26
Y1Sr2Cu2.7Ti0.3O6.7,26
Nd2Cu1F0.3O3.7,26
Bi1.95Sr1.85Nd0.2Cu1O4,26
Ca1.883Cu0.941Cl1.941Na0.059O2.117,26
Ca1.808Cu0.904Cl1.904Na0.096O2.192,26
Sr1.5Ba0.5Y1Cu2.8Mo0.2O7.03,26
Y1Ba2Cu3O6.409,26
Nd0.75Pr0.25Ba1Ca1Cu3O7,26
Sm1La0.8Sr0.2Cu1O3.945,26
La1.92Ba0.08Cu1O4,26
Y0.6Pr0.4Ba2Cu3O6.61,26
Sm0.8Pr0.2Ba2Cu3O6.85,26
La1.9Ba0.1Cu1O4,26
La1.845Ba0.155Cu1O4,26
Ru0.92Ce0.58Sr1.7Eu1.8Cu2O10,26
Tl1Sr0.4Ca0.6La1Cu1O5,26
H0.55La1.8Sr0.2Cu0.995Fe0.005O4,26
Ca1.9Na0.1Cu1Cl2O2,26
Tl1.75Ba2Cu1.2O5.98,26
Hg1Ba2Cu1O4.39,26
Y1Ba2Cu2.68Fe0.32O6.999,26
La1.775Nd0.125Sr0.1Cu1O4,26
La1.765Nd0.125Sr0.11Cu1O4,26
La1.35Ca0.15Nd0.5Cu1O4,26
La1.875Ca0.125Cu1O4,26
Y1Ba2Cu2.94Li0.06O6.6,26
Eu0.7Ca0.3Ba2Cu3O6.13,26
La1.985Sr0.015Cu1O4.032,26
La0.6Ca0.1Pr0.3Ba1.5Sr0.5Cu3O6.872,26
Ca1.825Na0.175Cu1Cl2O2,26
Pr0.89La1Ce0.11Cu1O3.98,26
Li0.5Hf1N1Cl1,26
La1F0.05Fe1As1O0.95,26
La1Fe1As1F0.1O0.9,26
La1Fe1As1F0.11O0.89,26
Eu1Fe2As1.4P0.6,26
Ba0.75K0.25Fe2As2,26
Mo1Sr2Y0.8Ca0.2Cu2O8,26
Fe2As2Sr4Mg0.8Ti1.2O6,26
Eu1Fe2As1.46P0.54,26
Sr2V1Fe1As1O3,26
Na0.86Fe1As1,26
Na1Fe1As1,26
Ba0.76K0.24Fe2As2,26
Ca0.82Pr0.18Fe1As1.98Sb0.02,26
Ca7.62La2.38Pt3Fe10As18,26
La1Fe1As0.8P0.2F0.1O0.9,26
Ba1Cs1Fe4As4,26
La0.85Y0.15Fe0.995Mn0.005As1F0.11O0.89,26
La0.15Na0.85Fe2As2,26
Ba0.525K0.475Bi1O2.917,25.9
La1.78Sr0.22Cu1O4,25.9
La1.85Sr0.15Cu0.985Ni0.015O4,25.9
La0.87Sr0.13Fe1As1O1,25.9
La1Fe1As1F0.08O0.9,25.9
La2Cu1O4.03,25.8
Y0.8Ca0.2Ba2Cu3O6.32,25.8
La1Fe1As1F0.1O0.9,25.8
Ba1Fe1.82Ru0.18As2,25.8
Sr1.9Ca0.1V1Fe1As1O3,25.8
Ba0.7Na0.3Fe2As2,25.8
Y1Ba2Cu3.88Zn0.12O8,25.7
Eu2.17Ce0.5Sr1.33Cu2.5Fe0.5O9.23,25.7
La1.95Bi0.05Cu1O4.075,25.7
Mg0.82Al0.18B2,25.7
Mg0.815Al0.18B2,25.7
La1.825Ba0.175Cu1O4,25.7
La0.8Y0.2Fe0.995Mn0.005As1F0.11O0.89,25.7
Ca1Fe1As1F1,25.7
La1Fe1As0.8P0.2F0.05O0.95,25.61
Y1La2Ba3Cu6O14.53,25.6
Ba0.55K0.45Bi1O3,25.6
Sm0.8Pr0.2Ba2Cu3O6.7,25.6
La1.8Sr0.2Cu0.99Zn0.01O4,25.6
Ba0.57K0.43Bi1O2.983,25.6
La1.8Nd0.2Cu1O4.093,25.6
Mg0.55Al0.225Li0.225B2,25.6
Mg0.8Al0.2B2,25.6
Mg0.854Au0.146B2,25.6
Ba0.64K0.36Fe2As2,25.6
La0.9Y0.1Fe1As1O0.6,25.6
La1Fe0.97Ru0.03As1F0.11O0.89,25.6
Ba0.6K0.4Bi1O3,25.5
La1.85Sr0.15Cu0.992Zn0.008O4,25.5
La1.823Ba0.177Cu1O4,25.5
La1.8Sr0.2Cu0.995Fe0.005O4,25.5
La1.76Nd0.125Sr0.115Cu1O4,25.5
Ba0.553K0.447Bi1O3,25.5
La1.9Pr0.1Ca0.2Ba2Cu4.2O9.8786,25.5
Ru0.99Co0.01Sr2Gd1Cu2O8,25.5
Hf1N1Cl1,25.5
Mg1B1.792C0.208,25.5
La1.85Sr0.15Cu0.985Ni0.015O4,25.5