formula,Tc
Ho1Rh1.6Ir2.4B4,2.2
Y1Pd2Al3,2.2
Pd17Se15,2.2
Ga3Lu1,2.2
Li0.9Mo6O17,2.2
Sb3Zr5,2.2
Ba1Ti2Sb1.8Sn0.2O1,2.2
Ba1Ti2Sb1.7Sn0.3O1,2.2
La3Co4Sn13,2.2
Sn0.75Ag0.25Te1,2.2
Cs2Cr3As3,2.2
Eu0.5Ce0.5Bi1S2F1,2.2
Eu0.5La0.5F1Bi1S2,2.2
La1F0.5Bi1S2O0.5,2.2
La1Bi1S2F0.5O0.5,2.2
Tl1Ni2Se1.4S0.6,2.2
Pd1Bi1.65Pb0.35,2.2
Sr0.5Ce0.5F1Bi1S2,2.2
Ba1Pt1As1,2.195
Ag1Th2,2.19
Cu0.5Zn0.5Ir2S4,2.19
Tm5Rh6Sn18,2.19
Zr1Pd2In1,2.19
La1Bi1S1.8Se0.2F0.5O0.5,2.19
Ce1Co1In4.9625Hg0.0375,2.19
La1F0.5Bi0.9S2Sb0.06O0.5,2.19
Rh43Zr57,2.18
In1Te1,2.18
Ir2Y1,2.18
Ce1Co1In4.989Cd0.011,2.18
Ce1Co0.8Ru0.2In5,2.18
Hf1Rh1Si1,2.18
Pd0.12Ti1Se2,2.18
Th1Si1.9Co0.1,2.18
La1F0.5Bi1S1.8Se0.2O0.5,2.18
Li0.29Fe1.71S1H1O1,2.18
Li2Pt3B1,2.17
Ge1.9La1,2.17
Ge1.85La1,2.17
Ge1.83La1,2.17
Ge1.81La1,2.17
Ce1Co1In5,2.17
B2Os1,2.17
As1Cr1,2.17
La0.85Ce0.15Pt4Ge12,2.17
Eu3Bi2S3.4Se0.6F4,2.17
Ge1Mo3,2.166
Na0.23W1O3,2.16
Ge0.23Mo0.77,2.16
Ir0.7Y0.3,2.16
W2Zr1,2.16
Eu0.011La0.989,2.16
La1Rh1Si3,2.16
Ce0.95Yb0.05Co1In5,2.16
Sn0.552Pb0.368In0.08Te1,2.16
Tl1Ni2Se1.2S0.8,2.16
Nd0.04La0.96Ni1C2,2.16
La3Pd4Si4,2.15
Cd1Hg1,2.15
Eu0.012La0.988,2.15
Rh3Th7,2.15
Cr0.4Re0.6,2.15
Dy1.2Mo6S8,2.15
Ho1.2Mo6S8,2.15
Pd2Sc1Sn1,2.15
Th1Rh0.1Si1.9,2.15
Ce1Co1In4.9835Cd0.0165,2.15
Ni2Nb1Al1,2.15
Ba1Fe1.856Cu0.088As2,2.15
Pd0.02Ir1Te2,2.15
Sn0.85Ag0.15Te1,2.15
Mo2.91Ru0.09Sb7,2.15
Bi1Na1,2.15
O3Tl0.03W1,2.14
Mg1C1Ni2.6Ru0.4,2.14
Y2Pt1Ge3,2.14
Sn0.84In0.16Te1,2.14
Ce1Co1In4.875Zn0.125,2.14
Ce1Co1In4.98Cd0.02,2.14
Mo1Te1.6Se0.4,2.14
Pb1Ta1Se2,2.14
Ce0.95Yb0.05Co1In5,2.14
La0.3Ce0.7Ru2,2.134
Ir5La1,2.13
Ir1Zr3,2.13
Cu1Co1.95Ir0.05S4,2.13
Hf0.915Mo0.085,2.13
Ce1Co1In4.75Cd0.25,2.13
Fe0.2Ni0.8Zr2,2.13
Fe0.33Ni0.67Zr2,2.13
Ce1Co0.7Ru0.3In5,2.13
Sr0.58La0.42Bi1S2F1,2.13
Sn0.84In0.16Te1,2.13
Ce0.987Yb0.013Co1In5,2.13
Ba1Pt2As2,2.13
Ce1Rh1In5,2.124
Mo0.16U0.84,2.121
Ge3Rh5,2.12
Ge2Rh5,2.12
Ce1Rh1In5,2.12
Mo3.29Zr96.71,2.12
Ru0.42V0.58,2.12
Ge2Rh3,2.12
B2Os1,2.12
Ho1.1Ir4B3.6,2.12
La0.6Th0.4Bi1S2O1,2.12
Li2Pt3B0.95Al0.05,2.12
Sn0.84In0.16Te1,2.12
Pr0.5Eu0.5Pt4Ge12,2.12
Ce0.7Pr0.3Bi1S2O1,2.12
Mo0.18U0.82,2.118
Mo0.18U0.82,2.115
Mo0.2U0.8,2.113
Mo0.18U0.82,2.113
Cu19.8Zr79.2Mn1,2.11
Ag2In1,2.11
Pd1Te1.06,2.11
Pd1Te1.04,2.11
Ni0.03V0.97,2.11
Hf0.93Mo0.07,2.11
Er1Rh1.6Ir2.4B4,2.11
U0.85Mo0.15,2.11
Ba1Cu0.4Si1.6,2.11
Cs1Fe2As2,2.11
La98Lu1Tb1,2.108
La1.85Sr0.15Cu0.965Ni0.035O4,2.1
Y0.44Pr0.56Ba2Cu3O6.93,2.1
La1.85Sr0.15Cu0.97Zn0.03O4,2.1
Na0.32Co1H2.6O3.3,2.1
Co3Y4,2.1
Pd2Tm1Pb1,2.1
Be40Zr60,2.1
Pd34Zr66,2.1
Te3Zr1,2.1
Al1Mo6Pd1,2.1
C1Ir2W3,2.1
Fe0.5Ni0.5U6,2.1
In1Sb1,2.1
Mo3Sb4,2.1
Pt1Sb1,2.1
Cr0.6Ru0.4,2.1
Dy1Ni1.985Co0.03B2C1,2.1
Fe3Th7,2.1
Ce1Rh1In5,2.1
Y1.2Mo6S8,2.1
Er1Ir4B4,2.1
La1Rh1Sb1,2.1
Y1Rh1Sb1,2.1
K0.1W1O2.9F0.1,2.1
Cs0.1Li0.1W1O2.8F0.2,2.1
Al1Pd1Mo6,2.1
K2Mo15Se19,2.1
Er1.2Mo6S8,2.1
Se3Ta1,2.1
La7Ni3,2.1
Ca3Rh4Ge13,2.1
B2Os1,2.1
Mo3Sb7,2.1
Ba1Ir2P2,2.1
Pd2Zr0.9Nb0.1Al1,2.1
Ta1S2,2.1
Ce1Pt2In7,2.1
Bi4Te3,2.1
Ga3Sc1,2.1
Sr1Pt2Sb2,2.1
Sr1Pd1Ni1Ge2,2.1
Nb3Pd0.7Se7,2.1
La1Pd0.85Bi2,2.1
Fe0.98Ni0.02Se0.3Te0.7,2.1
La1Bi1S2F0.5O0.5,2.1
Bi2Rh3.5S2,2.1
U0.85Mo0.15,2.1
Sn0.8Ag0.2Te1,2.1
Bi3.93Ag0.07S3O4,2.1
Cs2Cr3As3,2.1
Sr0.5La0.5F1Bi1S2,2.1
Rb1Eu1Fe3.68Ni0.32As4,2.1
Ga5Re1,2.1
Ce0.98La0.02Co1In5,2.1
Rb1,2.1
B4.2W1,2.1
Se2Ta1.1,2.1
Cd3As2,2.1
O0.105Pd0.285Zr0.61,2.09
Pd0.285Zr0.61O0.105,2.09
Fe3Th7,2.09
Th1Ir3B2,2.09
Pt0.43W0.57,2.09
Ce0.9Yb0.1Co1In5,2.09
K0.38W1O3,2.09
Ir0.7Rh0.3Te2,2.09
Tl1Ni2Se0.2S1.8,2.09
Pr0.5Eu0.5Pt4Ge12,2.09
Er0.8Y0.2Pd2Sn1,2.08
Mo3Sb7,2.08
Re0.075Ta0.925,2.08
Th1Ir1.4Ru0.6,2.08
La0.85Y0.15Ni1C2,2.08
Ca1Ni1B1N1,2.08
Te3Tl5,2.078
Ca10Bi9.88,2.075
Ir1Nb3,2.07
Nb6Sn5,2.07
Ir2Sc1,2.07
Tm1Rh1.3Sn4,2.07
Be13U1,2.06
Bi1Rh1,2.06
Mo0.22U0.78,2.06
Cr0.1V0.9,2.06
Sn0.8549Pb0.0951In0.05Te1,2.06
Sr0.058Bi2Se3,2.06
Cr0.774Ru0.226,2.06
La1.8Nd0.05Ca0.074Ba0.076Cu1O4,2.05
Pd2Sc1Sn1,2.05
Nb0.25Sb0.25Ti0.5,2.05
Te1Y1,2.05
Te1,2.05
Ti0.18V0.72Al0.1,2.05
Ir0.99Pt0.01Te2,2.05
Ce1Co1In4.96Cd0.04,2.05
Ta1Se1.4Te0.6,2.05
Mo3Sb6.975Te0.025,2.05
La0.8Th0.2Bi1S2O1,2.046
Ce1Rh0.9Ir0.1In5,2.04
In0.91Te1,2.04
Au0.27Tl0.73,2.04
C1Ru1,2.04
Ca1Tl3,2.04
C0.848Ta1,2.04
La0.92Nd0.08Pt1Si1,2.04
Zr1Ir1Si1,2.04
Pd0.7Se0.3,2.04
Fe0.36Ni0.64Zr2,2.04
La0.7Th0.3Bi1S2O1,2.04
La0.9991Ce0.0009Pt1Si1,2.03
N0.7V1,2.03
Tl1Ni2Se0.8S1.2,2.03
Ce0.985Yb0.015Co1In5,2.03
Hf2Rh1,2.02
Mo0.14U0.86,2.02
Bi1Rh1,2.02
Cr2Ru1,2.02
Fe0.3Ni0.7Zr2,2.02
Re0.98Rh0.02,2.014
Nb0.18U0.82,2.011
Nb0.22U0.78,2.01
Nb0.67Pb1S3Ta0.33,2.01
W0.801Zr0.199,2.01
Ta0.03Zr0.97,2.01
La0.8Ce0.2Ru2,2.01
Ce0.98Nd0.02Co1In5,2.01
Nb0.2U0.8,2.009
La1.9Sr0.1Cu0.98Zn0.02O4,2
Na0.45Co1H2.6O3.3,2
Na0.4Co1H2.6O3.3,2
Ce1Cu2Ge2,2
Cu0.06Ti2Se2,2
Ni45Zr55,2
In1Sb1,2
Bi3Ca1,2
Co0.94Rh0.06U6,2
Co0.5Rh0.5Si2,2
Cu1Se1Te1,2
Os1Re1Y1,2
Rh1Ta1,2
Rh0.04Ti0.96,2
Rh0.91Ti0.09,2
C1Ru1,2
Tl0.3W1O3,2
Nb0.5Re0.5,2
Y1Os1Re1,2
Re1Y1Os1,2
Mo0.04Ti0.96,2
O3Tl0.03W1,2
O3Sr0.08W1,2
Ti0.5Zr0.5,2
Lu0.3Dy0.7Ni2B2C1,2
Y0.6Tb0.4Ni2B2C1,2
Ni1Zr2,2
U1Pd2Al3,2
Nb3Se4,2
Fe1,2
Ho1Ir4B4,2
Lu1Ru4B4,2
Ce1Co1In5,2
C6Ir4O2,2
Er0.7Tb0.3Ni2B2C1,2
Er0.4Tb0.6Ni2B2C1,2
Lu0.32Dy0.68Ni2B2C1,2
Ce2Rh1In8,2
Cs1I1,2
V0.745Sb0.208Al0.025,2
Cr1Ru2,2
Rb0.1Li0.1W1O2.8F0.2,2
Au1Sc1,2
Pd0.24Ti0.76,2
Mo6S8,2
Ga6Y1,2
As1,2
Nb2As1C1,2
Ce1Ir0.3Co0.7In5,2
Lu4.95Yb0.05Ir4Si10,2
La1Rh1Sn1,2
C1,2
Ba1Pt1Si3,2
Ni2Zr0.5Nb0.5Ga1,2
Sc1Rh2Sn1,2
Cs0.3W1O3,2
Ca1Fe1.6Co0.4As2,2
Sr1Fe1.916Co0.084As2,2
Sr1Fe1.888Co0.112As2,2
Sr0.15Eu0.85Fe1.76Co0.24As2,2
Sr0.05Eu0.95Fe1.76Co0.24As2,2
Eu1Fe1.76Co0.24As2,2
Ce0.98La0.02Co1In5,2
Ce0.95Nd0.05Co1In5,2
La1Ru2P1.6B0.4,2
Sc1Pd2Sn1,2
Ta1Se3,2
Ba1Pd2As2,2
Ce1Fe0.98Co0.02As1H1,2
Ce1Fe0.96Co0.04As1H1,2
Pd0.2Ho1Te3,2
Th1Si1.5Co0.5,2
Th1Ni1Si1,2
La0.99Ce0.01Ni1C2,2
Sm0.02La0.98Ni1C2,2
Pd1S2,2
Ce0.1Pr0.9Bi1S2O1,2
Bi2Ca1,2
Pd1Bi1.6Pb0.4,2
Nb5Sn2Al1,2
Ba0.5K0.5Fe1.8Co0.2As2,19.95
Eu1Fe1.82Ir0.18As2,19.95
La1Nd0.9Ce0.1Cu1O3.974,19.9
Nb3Al0.92Ge0.08,19.9
Ga0.251Nb0.749,19.9
Nb3Al0.7Ge0.3,19.9
Nb3Al0.72Ge0.28,19.9
Ca1Fe1.898Co0.102As2,19.9
La1Fe0.9Zn0.1As1F0.1O0.9,19.9
La1Fe0.85Zn0.15As1F0.1O0.9,19.9
Na1Fe0.985Co0.015As1,19.9
Ba1Fe1.904Ni0.096As2,19.9
La1.85Sr0.15Cu0.991Fe0.009O4,19.85
La1.774Sr0.226Cu1O4,19.8
Bi1Pb1Sr1.6La0.4Cu1O6.065,19.8
La1Nd0.89Ce0.11Cu1O3.978,19.8
Pb2Cu0.9La1.1Cu2O6.19,19.8
Y0.9Ca0.1Ba2Cu3O6.03,19.8
La1.72Nd0.1Ba0.18Cu1O4,19.8
La1.8Sr0.2Cu0.983Zn0.017O4,19.8
Pr0.83La1Ce0.17Cu1O4,19.8
Nb3Al0.75Ge0.25,19.8
Nb3Al0.96Ge0.04,19.8
Nb3Al0.91Ge0.09,19.8
Nb3Al0.9B0.1,19.8
Nb3Al0.95Be0.05,19.8
Nb3Al0.9Be0.1,19.8
Nb0.75Al0.02Ge0.05,19.8
Nb0.75Al0.18Ge0.07,19.8
Nb0.75Al0.17Ge0.08,19.8
Nb2.96Al0.7592Ge0.3224,19.8
Nb3Al0.8Ge0.2,19.8
Ga1Nb3,19.8
Sr1Fe1.4Ru0.6As2,19.8
Sm1.85Ce0.15Cu1O3.98,19.7
Y1Ba2Cu3O6.48,19.7
Ca1.84Na0.16Cu1Cl2O2,19.7
C60K3,19.7
Sm1.85Ce0.15Cu1O4,19.7
Nb0.758Al0.174Ge0.069,19.7
Nb0.75Al0.2Ge0.05,19.7
Nb0.75Al0.21Ge0.04,19.7
Nb0.75Al0.16Ge0.09,19.7
Nb3Al0.9Ge0.1,19.7
Nb3Al0.6Ge0.4,19.7
Mg1B1.8C0.2,19.7
Ca9.35La0.65Pt3Fe10As18,19.7
La1Fe0.8Ru0.2As1F0.11O0.89,19.7
La1.75Sr0.25Cu1O3.921,19.6
Sm1La0.8Sr0.2Cu1O3.925,19.6
La1.92Sr0.08Cu1O4,19.6
Al0.95Be0.05Nb3,19.6
Nb3Al0.97Ge0.03,19.6
Nb3Al0.83Ge0.17,19.6
C60K3,19.6
Sc1,19.6
Ba1Fe1.3Ru0.7As2,19.6
Ba1Fe1.83Co0.17As2,19.6
La1Fe0.982Zn0.018As1F0.28O0.68,19.6
Ba0.5K0.5Bi1O3,19.55
La1.8Ca0.2Cu1O3.917,19.5
Nd1.85Ce0.15Cu1O3.98,19.5
Nd1.85Ce0.15Cu0.999Ni0.001O4,19.5
C60K3,19.5
Pr1.85Ce0.15Cu1O4,19.5
Ca0.1Ba1.65La1.25Cu3O7.01,19.5
Nd1.85Ce0.15Cu0.998Fe0.002O4,19.5
La1.8Sr0.2Cu0.995Zn0.005O4,19.5
Y1,19.5
Al1Ge1Nb3,19.5
Nb3Al0.9Ge0.1,19.5
La1.9Ca0.1Cu1O4,19.5
La1.762Sr0.238Cu1O4,19.5
Ba1Fe1.3Ru0.7As2,19.5
Ba1Fe1.9Co0.1As2,19.5
Ca9.39Pr0.61Pt3Fe10As18,19.5
Ca9.68Ho0.32Pt3Fe10As18,19.5
Ca0.85Gd0.15Fe1As2,19.5
Ce1Fe0.83Co0.17As1H1,19.5
La1Fe1As1H0.41O0.59,19.5
Nb0.75Al0.16Ga0.09,19.45
Mg1B1.4C0.6,19.45
Pr1.85Ce0.15Cu1O3.98,19.4
Ge1Nb3,19.4
C60K3,19.4
Nd1.85Ce0.15Cu1O4,19.4
Ca0.5Na0.5Fe2As2,19.4
Na1Fe0.979Co0.021As1,19.4
Ba0.3K0.7Fe2As2,19.4
C60K3,19.3
La1.76Sr0.24Cu1O4,19.3
Nd1.85Ce0.15Cu1O4.03,19.3
Ru0.9Rh0.1Sr2Gd1Cu2O8,19.3
Nb3Al0.98Ge0.02,19.3
Ce1Fe1As0.9P0.1F0.05O0.95,19.3
Ca0.906Nd0.094Fe2As2,19.3
Ba1Fe1.908Ni0.092As2,19.3
Na1Fe0.981Co0.019As1,19.3
Ca1K1Fe3.864Ni0.136As4,19.3
Nd1.85Ce0.15Cu1O4,19.2
Sm1.45Gd0.4Ce0.15Cu1O3.97,19.2
La2Cu0.98Zn0.02O4.099,19.2
La1.55Nd0.3Sr0.15Cu1O4,19.2
Al0.9As0.05Ga0.05Nb3,19.2
Al0.22Nb0.75Si0.3,19.2
Nb3Al0.95Ga0.05,19.2
Nb3Al0.927Ga0.073,19.2
Nb0.75Al0.23Ge0.02,19.2
C60K3,19.2
Sr1Fe1.8Co0.2As2,19.2
Ba0.2Na0.8Fe2As2,19.2
Sr1Fe2As1.08P0.92,19.2
Ba1Fe1.58Ru0.42As2,19.2
Ba1Fe1.9Ni0.1As2,19.2
Nd1.35La0.5Ce0.15Cu1O4,19.1
Gd0.05Sm1.8Ce0.15Cu1O4,19.1
La1.9Sr0.1Cu0.995Zn0.005O4,19.1
Al0.95B0.05Nb3,19.1
Nb3Al0.75Ga0.3,19.1
Nb3Al0.907Ga0.093,19.1
Nb0.75Al0.225Ga0.025,19.1
Nb0.75Al0.175Ga0.075,19.1
Ba2Ti2Fe1.98Cr0.02As4O1,19.1
Ge1Nb3,19.09
La1Fe1As0.6P0.4F0.05O0.95,19.08
La1.85Ca0.15Cu1O3.942,19
Y1Ba2Cu2.7Zn0.3O7,19
Pr1.85Ce0.15Cu1O4,19
La1.76Sr0.24Cu1O4,19
La1.93Ba0.07Cu1O4,19
La1.842Ba0.158Cu0.99Ni0.01O4,19
Nd1.15La0.7Ce0.15Cu1O4,19
Dy0.5Pr0.5Ba2Cu3O6.85,19
Nd1.85Ce0.15Cu1O3.98,19
Y0.88Ca0.12Sr2Cu2.5Fe0.5O6.89,19
Bi1.95Sr1.25La0.8Cu1O4,19
Pb0.5Cd0.5Sr2Tb0.6Ca0.4Cu2O7,19
Pb0.5Cd0.5Sr2Tb0.5Ca0.5Cu2O7,19
Ba1.6Sr0.4Yb0.85Ca0.15Cu3O6.36,19
Nd1.7945Y0.0555Ce0.15Cu1O4,19
Ba0.54K0.46Bi1O3,19
La1.78Sr0.22Cu0.995Zn0.005O4,19
La1.81Sr0.19Cu0.99Zn0.01O4,19
Nd2Cu1F0.3O4,19
Tm1Ba2Cu3O6.41,19
La1.93Sr0.07Cu1O4,19
Nd1.665Gd0.185Ce0.15Cu1O4,19
Ru1Sr2Gd1Cu1.9Li0.1O8,19
Nd1.85Ce0.15Cu1O4,19
Ca1.85Na0.15Cu1Br1Cl1O2,19
Ca1.8Na0.2Cu1Br1Cl1O2,19
Ca1.75Na0.25Cu1Br1Cl1O2,19
Pr0.85La1Ce0.15Cu1O3.95,19
Y1Ba2Cu3O6.375,19
Al0.5Ga0.5Nb3,19
Nb3Al0.967Ga0.033,19
Nb3Al0.991Ge0.009,19
Nb3Al0.5Ga0.5,19
C60K3,19
Li1Hf0.45Zr0.55N1Br1,19
Na0.29Hf1N1Cl1,19
Na0.8Hf1N1Cl1,19
Ru0.85Rh0.15Sr2Gd1Cu2O8,19
La1.85Sr0.15Cu0.984Zn0.016O4,19
La1Fe1As1F0.14O0.86,19
Ca1Fe1.888Co0.112As2,19
Ba0.66K0.34Fe1.8Co0.2As2,19
Ba1Fe1.81Zn0.06Co0.13As2,19
Ba1Fe1.79Zn0.08Co0.13As2,19
Ca1Fe0.83Co0.17As1H1,19
Sm1Fe1As0.55P0.45H0.08O0.92,19
La1Fe1As0.6P0.4F0.05O0.95,19
Ba0.788K0.212Fe2As2,19
La0.97Y0.03Fe0.995Mn0.005As1F0.11O0.89,19
Ba1Fe1.88Ni0.12As2,19
Ba1Fe1.78Co0.22As2,18.96
Ba0.45K0.55Bi1O2.83,18.95
La1.8Sr0.2Cu1O4,18.9
Y1Ba2Cu2.94Zn0.06O6.65,18.9
Y1Ba2Cu2.94Zn0.06O6.59,18.9
Y1Ba1.72La0.28Cu4O8,18.9
Al0.9Ge0.1Nb3,18.9
Pr1.85Ce0.15Cu0.995Zn0.005O4.065,18.9
Ba1Fe1.914Pd0.086As2,18.9
La0.92Sr0.08Fe1As1O1,18.9
Ba1Fe1.48Ru0.52As2,18.9
Ba1Fe1.908Ni0.092As2,18.9
Ba1Fe1.8Co0.2As2,18.9
Ca7.16Ce2.84Pt3Fe10As18,18.9
Ca7.65Nd2.35Pt3Fe10As18,18.9
Ba1Fe1.91Ni0.09As2,18.9
Pr1.85Ce0.15Cu1O4.161,18.85
La1.87Sr0.13Cu0.99Zn0.01O4,18.83
La1.89Ba0.11Cu1O4,18.8
Sm1.35Gd0.5Ce0.15Cu1O3.97,18.8
Al1Nb3,18.8
Nb3Al0.983Ga0.017,18.8
Sm1Fe0.94Ni0.06As1F0.12O0.88,18.8
Na1Fe0.98Co0.02As1,18.8
Ba2Ti2Fe2As4O1,18.75
C60K3,18.7
Ba0.65K0.35Bi1O2.99,18.7
Y0.5Pr0.5Ba2Cu3O6.65,18.7
Ba0.52K0.48Bi1O3,18.7
Al0.24Nb0.76,18.7
Al1Nb3,18.7
Nb0.73Al0.255Si0.015,18.7
Nb3Al0.67Ga0.33,18.7
Ca10Ir4Fe10As18,18.7
Y1Ba2Cu2.94Zn0.06O6.59,18.6
Y1Ba2Cu3O6.33,18.6
La1.85Sr0.15Cu0.988Co0.012O4,18.6
La1.84Sr0.16Cu0.98Zn0.02O4,18.6
Ba0.5K0.5Bi1O3,18.6
Sm1.85Ce0.15Cu1O4,18.6
Al1Nb3,18.6
Ga0.25Si0.75V3,18.6
Ga1Si1V3,18.6
Nb3Al0.985Si0.015,18.6
Nb0.75Al0.2Ge0.05,18.6
Al0.25Nb0.75,18.6
Nb3Si1,18.6
Ba1Fe1.898Co0.102As2,18.6
Ca9.58Y0.42Pt3Fe10As18,18.6
Ba1Fe1.88Ni0.12As2,18.6
La0.95Y0.05Fe0.995Mn0.005As1F0.11O0.89,18.6
Ba0.2Na0.8Fe2As2,18.6
Na1Fe1Ni0.015As1,18.6
Nb75Ga15Al10,18.55
Nb3Al0.8Ga0.2,18.54
Al1Nb3,18.52
Nd2Cu1F0.4O3.6,18.5
Nd2Cu1F0.3O3.7,18.5
Gd0.2Nd1.65Ce0.15Cu1O4,18.5
La1.85Sr0.15Cu0.98Ni0.02O4,18.5
Gd0.02Pr1.83Ce0.15Cu1O4,18.5
La1.78Sr0.22Cu0.9975Zn0.0025O4,18.5
Pu1Co1Ga5,18.5
Nb0.8Sn0.2,18.5
Nb3Al0.975Si0.025,18.5
Nb3Al0.956Si0.044,18.5
Nb0.75Al0.2Ge0.05,18.5
Nb3Al0.9Ga0.1,18.5
Nb3Al0.5Ga0.5,18.5
Nb3Ga0.5Al0.5,18.5
Sm1Fe0.8Ru0.2As1F0.15O0.85,18.5
Ca1Fe1.898Co0.102As2,18.5
Ba1Fe1.906Co0.094As2,18.5
La0.81Sm0.06Sr0.13Fe1As1O1,18.5
Ba1Fe1.85Zn0.04Co0.11As2,18.5
Ba1Fe1.908Ni0.082As2,18.5
Al1Nb3,18.45
Pr1.85Ce0.15Cu0.99Zn0.01O4.065,18.41
Nd1.85Ce0.15Cu1O4,18.4
Nd0.95La0.9Ce0.15Cu1O4,18.4
Ba0.6K0.4Bi0.969Pr0.031O3,18.4
Nb3Sn0.9Al0.1,18.4
Al0.245Nb0.725,18.4
Nb3Al0.98Se0.02,18.4
Nb3Al0.964Si0.036,18.4
Nb3Al0.945Si0.055,18.4
Nb3Al0.935Si0.065,18.4
Nb3Al0.9Ge0.1,18.4
Al3Nb3,18.4
Ca1.88Na0.12Cu1Cl2O2,18.4
Ba1Fe1.908Ni0.092As2,18.4
Ca1Fe0.85Rh0.15As1F1,18.4
Ba0.1Na0.9Fe2As2,18.4
Li0.8Fe1.2Se0.34S0.66H1O1,18.4
La1.7Sr0.3Cu1O4,18.3
Yb0.45Pr0.55Ba2Cu3O6.92,18.3
La1.78Sr0.22Cu0.99Zn0.01O4,18.3
Al0.23Nb0.75Zr0.013,18.3
Nb3Sn1,18.3
Nb0.71Sn0.29,18.3
Nb75Ga7.5Al17.5,18.3
Nb3Al0.9In0.1,18.3
Nb3Sn0.9Ga0.1,18.3
Nb3Ga0.05Sn0.95,18.3
Nb3In0.15Sn0.85,18.3
Nb3Sn0.91Ga0.09,18.3
Nb2.85Ta0.15Sn1,18.3
Li1Fe1As1,18.3
Ba1Fe1.906Co0.094As2,18.3
Sm1Fe0.89Ir0.11As1O1,18.3
Ba0.5K0.5Fe1.8Zn0.2As2,18.3
La1Fe0.7Ru0.3As1F0.11O0.89,18.3
Nb3Bi0.15Sn0.85,18.28
Pr1.85Ce0.15Cu0.985Zn0.015O4.065,18.28
Ba1Fe1.91Ni0.09As2,18.27
In0.15Nb3Sn0.85,18.26
Nb75Ga5Al20,18.25
Nb3Tl0.1Sn0.9,18.25
Pu1Co1Ga5,18.25
Nb3Pb0.15Sn0.85,18.24
Bi0.15Nb3Sn0.85,18.23
La1.822Ba0.178Cu0.99Ni0.01O4,18.2
La1.91Ce0.09Cu1O4,18.2
Ga0.5Si0.5V3,18.2
Nb0.72Sn0.28,18.2
Nb3Sn0.85Tl0.15,18.2
Al1Nb3,18.2
Ga20Nb80,18.2
Li1Hf0.2Zr0.8N1Cl1,18.2
Nb3Al0.05Sn0.95,18.2
Ce1Fe1As0.7P0.3F0.05O0.95,18.2
Sm1Fe0.9Zn0.1As1F0.2O0.8,18.2
Ba1Fe1.915Ni0.085As2,18.2
Ca9.4La0.6Pt3Fe10As18,18.2
Nb3As0.05Sn0.95,18.19
Nb0.8Sn0.2,18.18
Nb3Pb0.15Sn0.85,18.16
Ga0.15Nb3Sn0.7Tl0.15,18.14
Bi0.15Nb3Sn0.7Tl0.15,18.12
Ga0.15Nb3Pb0.15Sn0.7,18.11
Nd1.85Ce0.15Cu0.996Zn0.004O4,18.1
Bi1.5Pb0.5Sr1.5La0.5Cu1O6.074,18.1
Pb2Cu0.9La1.1Cu2O7.42,18.1
La1.83Sr0.17Cu0.98Mn0.02O4,18.1
Nd1.85Ce0.15Cu1O4.034,18.1
Al1Nb3,18.1
Nb0.76Sn0.74,18.1
Nb3Sn0.9Ga0.1,18.1
Nb3Al0.967Se0.033,18.1
Nb3Al0.8In0.2,18.1
Nb3Al0.9Zn0.1,18.1
Nb3Sn0.95Ge0.05,18.1
Nb3Sn0.9In0.1,18.1
Nb3Ga0.67Al0.33,18.1
Nb3Ga0.65Al0.35,18.1
Nb3Sn1,18.1
Nb2.85Zr0.15Sn1,18.1
Nb2.7Zr0.3Sn1,18.1
Sm0.716La1.084Sr0.2Cu1O4,18.1
Sr1Fe1.75Co0.25As2,18.1
Ce1Fe1As0.7P0.3F0.05O0.95,18.1
Rb1Eu1Fe3.76Ni0.24As4,18.1
As0.15Bi0.15Nb3Sn0.7,18.07
Nb3Sn1,18.07
Al0.9Nb3Sb0.1,18.06
Nb3Ga0.2Bi0.2Sn0.6,18.06
Ru0.6Sn0.4Sr2Gd1Cu2O8,18.05
As0.15Nb3Pb0.15Sn0.7,18.05
Nb3Sn1,18.05
Bi0.15Ga0.15Nb3Sn0.7,18.04
As0.15Ga0.15Nb3Sn0.7,18.01
Bi0.15In0.15Nb3Sn0.7,18.01
Pr1.85Ce0.15Cu0.98Zn0.02O4.065,18.01
Ba0.6K0.4Bi1O3,18
Nd1.25La0.6Th0.15Cu1O4,18
C60K3,18
Bi2Sr2Ca0.5Y0.5Cu2O8.36,18
Y1Sr2Cu2.8Ge0.2O,18
Bi2Sr1.8La0.2Cu1O6.3,18
Y0.9Ca0.1Ba2Cu2.55Co0.45O7.02,18
Bi1.95Sr1.45Nd0.6Cu1O4,18
Ca1.9K0.1Cu1Cl2O2,18
Y0.4Pr0.6Ba1Sr1Cu3O6.92,18
Pr1.74Ce0.15Sr0.11Cu1O3.96,18
Pr1.85Ce0.15Cu1O3.98,18
Ba0.54K0.46Bi1O3,18
La1.75Nd0.1Ca0.064Ba0.086Cu1O4,18
Al1Sr2Ho0.5Ca0.5Cu2O7.05,18
Sr0.81Nd0.19Cu1O2,18
Nd1.7575Y0.0925Ce0.15Cu1O4,18
La1.9Er0.1Ba2Ca0.2Cu4.2O9.85,18
La1.925Sr0.075Cu1O4,18
La1.03Pr0.85Sr0.12Cu1O4,18
Nd1.85Ce0.15Cu0.995Zn0.005O4,18
La1.77Sr0.23Cu0.99Ni0.01O4,18
La1.78Sr0.22Cu0.993Zn0.007O4,18
La1.77Sr0.23Cu0.995Zn0.005O4,18
La1.83Sr0.17Cu0.98Co0.02O4,18
Nd2Cu1F0.5O4,18
Gd1Ba1.5Sr0.5Cu3O6.63,18
La1.75Sr0.25Cu1O4,18
Y1Ba2Cu2.95Zn0.05O6.47,18
Nd1.48Gd0.37Ce0.15Cu1O4,18
La1.9Sr0.1Cu1O4,18
Mo1Sr2Sm1.5Ce1Cu2O10,18
Ca1.75Na0.25Cu1Br2O2,18
Ca1.65Na0.35Cu1Br2O2,18
Nb3Sn1,18
Nb3Sn0.94Al0.06,18
Nb3Sn0.96Al0.04,18
Nb3Sn0.8Ge0.2,18
Nb0.747Al0.239Si0.014,18
Nb2.985Hf0.015Al1,18
Nb2.97W0.03Al1,18
Nb3Al0.952Se0.048,18
C60Cs3,18
Mg0.88Ir0.12B2,18
Mg0.7Al0.3B2,18
C3Y2,18
Nb3Sn0.9Ge0.1,18
Nb1Sn3,18
Nb2.7Ta0.3Sn1,18
Al0.05Nb3Sn0.95,18
Nb3Si1,18
La1.59Na0.41Cu1O4,18
La1Fe1As1F0.06O0.94,18
Li1Fe1As1,18
Pu1Co1Ga5,18
La1Fe1As1F0.14O0.86,18
La0.77Sm0.1Sr0.13Fe1As1O1,18
Sm1Fe0.94Ir0.06As1O1,18
Ba0.694K0.306Fe1.826Co0.174As2,18
Na0.9Fe1As1,18
Nb0.76Fe1.61Se0.96S1.04,18
Sr0.8Eu0.2Fe1.78Co0.22As2,18
Eu0.5K0.5Fe1.9Ni0.1As2,18
Ba0.79K0.21Fe2As2,18
Ba0.85K0.15Fe2As2,18
Ba1Fe1.857Co0.13Mn0.013As2,18
Ba0.698Na0.302Fe2As2,18
Ba1Fe1.915Ni0.085As2,18
As0.15In0.15Nb3Sn0.7,17.99
As0.15Nb3Sn0.7Tl0.15,17.98
As0.15Nb3Sn0.85,17.98
Al0.215Nb0.785,17.97
Nb3Ge0.1Sn0.9,17.97
Nb3Sn1,17.93
Nb0.5Sn0.5,17.91
La1.85Sr0.15Cu0.988Al0.012O4,17.9
La1.8Ba0.2Cu1O4,17.9
Nb3Sn1,17.9
Nb3Sn0.98Al0.02,17.9
Nb3Sn0.92Al0.08,17.9
Nb1C0.28N0.78,17.9
Al1Nb3,17.9
Nb0.75Al0.175Ge0.075,17.9
Nb0.75Al0.225Ge0.025,17.9
Nb3.05Al0.7125Ge0.19,17.9
Nb1C0.5N0.5,17.9
Nb2.85Ti0.15Sn1,17.9
Nb2.55Zr0.45Sn1,17.9
Nd1.85Ce0.15Cu0.91Mn0.09O4,17.9
La1.82Sr0.18Cu0.98Zn0.02O4,17.9
Na1Fe0.99Co0.01As1,17.9
Nb0.76Al0.18Ge0.06,17.88
Ba1Fe1.91Ni0.09As2,17.86
Nb3Ge0.2Pb0.2Sn0.6,17.84
Nb3Sn1,17.832
Ge0.15Nb3Pb0.15Sn0.7,17.82
Al0.95Nb3Sb0.5,17.81
La1.7Sr0.3Cu1O4,17.8
Y1Ba2Cu2.95Fe0.05O6.55,17.8
Gd0.11Sm1.74Ce0.15Cu1O4,17.8
C60K3,17.8
La1.89Ba0.11Cu1O4,17.8
Y1Ba1.9La0.1Cu3.93Zn0.07O8,17.8
C0.25N0.75Nb0.85Ti0.15,17.8
C0.35N0.65Nb1,17.8
Ge0.15Nb3Sn0.85,17.8
Nb3Si0.06Sn0.94,17.8
Nb0.69Sn0.25Ta0.06,17.8
Nb3Sn0.8Ga0.2,17.8
Nb2.75Ta0.25Sn1,17.8
Nb2.75Sn1Ta0.25,17.8
Nb1C0.3N0.7,17.8
Nb3Al0.94Se0.06,17.8
Nb3Al0.8B0.2,17.8
Al1Nb3,17.8
Nb1C0.3N0.64,17.8
Nb3Sn0.8In0.2,17.8
Nb3Sn0.9Al0.1,17.8
Nb3Sn0.91Al0.09,17.8
Pu1Co1Ga5,17.8
La1.45Nd0.4Sr0.15Cu1O4,17.8
La1Fe1As1F0.14O0.86,17.8
Ba1Fe1.808Rh0.192As2,17.8
Ba1Fe1.908Ni0.092As2,17.8
Ba1Fe1.922Rh0.078As2,17.8
Li1Fe1As1,17.8
Ca0.5Na0.5Fe2As2,17.8
Na1Fe0.99Co0.01As1,17.8
La1Fe1As1H0.21O0.79,17.8
Sm1Fe1As0.85P0.15F0.12O0.88,17.8
Ba0.31K0.69Fe2As2,17.8
Na1Fe1Ni0.01As1,17.8
Ba1Fe1.52Ru0.48As2,17.8
Nb3Sn1,17.8
Nb3Sn1,17.77
Bi0.15Ge0.15Nb3Sn0.7,17.75
Nb3Sn1,17.75
La1.78Sr0.22Cu0.98Ni0.02O4,17.7
La1.8Sr0.2Cu0.98Zn0.02O4,17.7
La1.4Nd0.4Sr0.2Cu1O4,17.7
Al0.9Ga0.1Nb3,17.7
Nb2.976Ti0.024Al1,17.7
Nb2.94Ta0.06Al1,17.7
Nb1C0.3N0.7,17.7
Nb3Al0.8Zn0.2,17.7
Nb3Sn0.8Ge0.2,17.7
Nb2.34Zr0.66Sn1,17.7
Nb2.1Zr0.9Sn1,17.7
Nb2.934V0.066Sn1,17.7
La1.85Sr0.15Cu0.99Fe0.01O4,17.7
Ca1Fe1.9Co0.1As2,17.7
Nb1N0.98O0.02,17.7
Pr1.86Ce0.14Cu1O4,17.7
Na1Fe1Ni0.013As1,17.7
Nb3Sn0.8Ge0.2,17.65
La1.885Sr0.115Cu0.995Zn0.005O4,17.64
N0.85Nb0.66Ti0.34,17.61
Sr2Y1Ru0.92Cu0.08O6,17.6
Mg1B1.736C0.264,17.6
Nb3Sn1,17.6
Nb0.625Sn0.25Ta0.125,17.6
Nb2.5Ta0.5Sn1,17.6
Nb3Al0.81Ge0.19,17.6
Nb2.5Sn1Ta0.5,17.6
Nb2.9925Zr0.0075Al1,17.6
Nb3Al0.924Se0.076,17.6
Nb3Al0.9Se0.1,17.6
Ga25Nb75,17.6
Nb1C0.2N0.8,17.6
Li0.8Fe1As1,17.6
Gd1Fe0.8Ir0.2As1O1,17.6
La1Fe0.75Ru0.25As1F0.11O0.89,17.6
Nb0.95Mg0.05N0.92O0.08,17.6
Ca9.75Er0.25Pt3Fe10As18,17.6
Ca0.85Sm0.15Fe1As2,17.6
Sr1Fe1.8Co0.2As2,17.53
Eu0.95La0.9Ce0.15Cu1O4,17.5
Nd2Cu1F0.5O3.5,17.5
Cu0.75Ge0.25Sr2Y1.3Ce0.7Cu2O8.59,17.5
La1.745Nd0.14Sr0.115Cu1O4,17.5
La1.75Nd0.125Sr0.125Cu1O4,17.5
La1.85Sr0.15Cu0.98Zn0.02O4,17.5
La1.8Sr0.2Cu0.98Zn0.02O4,17.5
Nb0.5Sn0.5,17.5
Al25Nb75,17.5
Al1Nb3,17.5
Nb1C0.2N0.74,17.5
Nb3Si1,17.5
Li1Fe1As1,17.5
Al1Nb1Sn1,17.45
La1.85Sr0.15Cu0.975Ni0.025O4,17.4
Gd0.07Pr1.78Ce0.15Cu1O4,17.4
La1.78Sr0.22Cu0.98Ni0.02O4,17.4
Nb3Sn1,17.4
Al1Nb3,17.4
Nb2.97Zr0.03Al1,17.4
Nb0.768Al0.146Ge0.086,17.4
Nb0.7425Zr0.0075Al0.25,17.4
Nb3.07Al0.5859Ge0.279,17.4
Nb1C0.5N0.47,17.4
Nb3Al0.5Ge0.5,17.4
Ba1Fe1.8Co0.2As2,17.4
Ba1Fe1.82Ni0.18As2,17.4
Li1Fe1As1,17.4
Pr1Fe1As0.4P0.6F0.1O0.9,17.4
Ca1Fe1.93Co0.07As2,17.4
S1,17.4
Na1Fe1Ni0.008As1,17.4
Nd1.85Ce0.15Cu0.998Ni0.002O4,17.3
Bi1.2Pb0.8Sr1.6La0.4Cu1O6.014,17.3
Nd1.65Y0.2Ce0.15Cu1O4,17.3
C3Y2,17.3
C1N1Nb1,17.3
N0.998Nb1O0.002,17.3
N1Nb1,17.3
Nb0.8Sn0.2,17.3
Nb1C0.5Ni0.5,17.3
Nb80Ga19.7Fe0.03,17.3
Nb1C0.3N0.62,17.3
Nb3Al0.67Zn0.33,17.3
Nb2.4Ta0.6Sn1,17.3
Sm1Fe1As1F0.12O0.88,17.3
Sm1Fe0.9Co0.1As1O1,17.3
Sm1Fe0.84Ir0.16As1O1,17.3
Li1Fe1As1,17.3
Nb0.89Al0.11N0.85O0.17,17.3
Nb3Sn1,17.3
Nb3Sn1,17.29
Pr1.85Th0.15Cu1O3.98,17.2
Ba0.51K0.49Bi1O3,17.2
Nd1.85Ce0.15Cu1O4,17.2
La1.42Nd0.4Sr0.18Cu1O4,17.2
C0.026N0.974Nb1,17.2
Nb3Sn2,17.2
Nb3Al0.62Ge0.38,17.2
Nb2.94W0.06Al1,17.2
Nb2.859V0.141Al1,17.2
Nb75Ga10Al15,17.2
Nb1C0.2N0.7,17.2
Nb3Sn1,17.2
Sm1La0.802Sr0.198Cu1O4,17.2
Ca1Fe1.87Co0.13As2,17.2
Ba1Fe1.8Co0.2As2,17.2
La1Fe0.7Ru0.3As1F0.11O0.89,17.2
Ce1Fe1As0.95P0.05F0.05O0.95,17.2
Sr1Fe1.2Ru0.8As2,17.2
Nb1N0.87O0.13,17.2
K0.21Ti1N1Br1,17.2
Ba0.807K0.193Fe2As2,17.2
Ba1Fe1.906Co0.094As2,17.15
Al1Nb3,17.11
La1.8Sr0.2Cu0.98Ni0.02O4,17.1
Y1Ba2Cu3O6.41,17.1
B2Mg1,17.1
Si0.25V0.75,17.1
Si1V3,17.1
Al0.25Nb0.75,17.1
C60K3,17.1
Nb3Ga0.85Al0.15,17.1
Nb2.85V0.15Sn1,17.1
Sm1Fe1As1F0.12O0.88,17.1
Ba1Fe1.904Co0.096As2,17.1
Ba1Fe1.73Co0.27As2,17.1
Ca1Fe1.8Co0.2As2,17.1
La0.81Gd0.06Sr0.13Fe1As1O1,17.1
Ca4Al2Fe2P2O6,17.1
Ba1Fe2As0.48P1.52,17.1
Nb3Sb0.1Sn0.9,17.04
La1.85Ca0.15Cu1O4,17
Nd1.85Th0.15Cu1O3.98,17
La1.9Ba0.1Cu0.99Ni0.01O4,17
Sr2Y0.7Ca0.3Cu2.35Pb0.65O6.89,17
La1.875Ba0.05Sr0.075Cu1O4,17