formula,Tc
Y1Sr2Cu2.65Ga0.35O6.6,17
Bi1.95Sr1.25Pr0.8Cu1O4,17
Bi2Sr2Ca0.8Ce0.2Cu2O8,17
Y1Ba2Cu3.92Ni0.08O8,17
Bi2Sr1.6Sm0.4Cu1O6.3,17
La1.5Sm0.3Sr0.2Cu1O4,17
Y0.4Pr0.6Ba1.25Sr0.75Cu3O6.92,17
Y1Ba2Cu3O6.38,17
Pr1.85Ce0.15Cu1O4,17
Sm1.85Ce0.15Cu1O4,17
La2Cu1O4.0625,17
La1.04Pr0.85Sr0.11Cu1O4,17
La0.92Pr0.85Sr0.23Cu1O4,17
La1.78Sr0.22Cu0.99Zn0.01O4,17
Y1Ba2Cu2.919Zn0.081O6.7,17
Nd1.295Gd0.555Ce0.15Cu1O4,17
La1.84Y0.04Sr0.12Cu1O4,17
Ru1Sr2Eu1Cu2O8,17
Ba0.445K0.555Bi1O3,17
La0.6Rh4P12,17
Y1,17
Si1V3,17
C1.55Th0.3Y0.7,17
Ge1Nb3,17
Hf0.33Nb0.67,17
Si0.25V0.75,17
Nb78.5Sn2.2Al12.8Ge6.5,17
Y0.7Th0.3C1.35,17
Nb3Al0.8Be0.2,17
N0.74H2.22Na1Rb2C60,17
Li1,17
Nb1C0.5N0.42,17
Nb3Sn0.8Ga0.2,17
Y1.4Th0.6C3.1,17
Ca1Fe2.94Co0.06As2,17
H4Si1,17
Sr4Sc2Fe2P2O6,17
Ba1Fe1.906Co0.094As2,17
La1Fe1As1F0.1O0.9,17
Li1Fe1As1,17
Fe2P2Sr4Sc2O6,17
Ca4Al2Fe2P2O5.8,17
Sm1Fe1As0.5P0.5O0.85,17
Ca0.64Na0.36Fe2As2,17
Ba1Fe1.93Ni0.07As2,17
Ba1Fe1.83Zn0.06Co0.11As2,17
K0.8Fe1.992Co0.008Se2,17
Ba0.8K0.2Fe2As2,17
Na1Fe0.95Co0.05As1,17
Nb0.95Mg0.05N0.92O0.08,17
Sm1Fe1As0.55P0.45H0.26O0.74,17
Ba0.797K0.203Fe2As2,17
Ba1Fe2S3,17
La1.8Eu0.2Cu0.995Ni0.005O3.5,17
Si1V3,16.98
Nb1C0.9N0.1,16.97
Si0.25V0.75,16.95
Si0.3V0.7,16.95
Y1Ba2Cu2.7Co0.3O6.93,16.9
La1.74Nd0.1Ba0.16Cu1O4,16.9
La1.72Nd0.2Ba0.08Cu1O4,16.9
Nb3Sn0.8Al0.2,16.9
Al0.24Nb0.76,16.9
Al0.25V0.75,16.9
Nb3Sn0.05Sn0.95,16.9
Si1V3,16.9
Y1Ba2Cu3.88Co0.12O8,16.9
Li1Fe1As1,16.9
Sm1Fe0.8Ru0.2As1F0.15O0.85,16.9
Ca1Fe1.926Co0.074As2,16.9
Ba1Fe1.915Ni0.085As2,16.9
Ga0.15Nb3Sb0.15Sn0.7,16.89
Si0.25V0.75,16.86
Si1V3,16.85
Al1Nb3,16.84
Si1V3,16.84
Si1V3,16.83
La1Nd0.87Ce0.13Cu1O3.975,16.8
La1.8Sr0.2Cu0.98Ni0.02O4,16.8
La1.75Sr0.25Cu1O4,16.8
Nd0.9Pr0.1Ba2Cu3O6.65,16.8
Sm1.25Gd0.6Ce0.15Cu1O3.97,16.8
Sm1.15Gd0.7Ce0.15Cu1O3.97,16.8
Ca1.88Na0.12Cu1Cl2O2,16.8
Si1V3,16.8
Ga1V3,16.8
Nb2.85Ta0.15Al1,16.8
Nb3Sn0.8Al0.2,16.8
Y1.3Th0.7C2.7,16.8
Y1.4Th0.6C3,16.8
Ca1Fe1.854Co0.146As2,16.8
Li1Fe1As1,16.8
Nb0.87Si0.09N0.13O0.13,16.8
Ba1Fe1.91Co0.09As2,16.76
Pr1.85Ce0.15Cu1O4.065,16.75
Nb0.75Sn0.125Zr0.125,16.7
Si0.25V0.75,16.7
Ge1Nb3,16.7
Lu1Ni2B2C1,16.7
Si1V3,16.7
Nb3Sn0.5Zr0.5,16.7
Y1.5Th0.5C3,16.7
Ba1Fe1.906Co0.094As2,16.7
Ba1Fe1.982Mo0.018As2,16.7
Nb0.89Al0.11N0.84O0.16,16.7
Si0.25V0.75,16.65
La1.85Sr0.15Cu0.985Zn0.015O4,16.6
Pu1Co0.9Ni0.1Ga5,16.6
Pd0.55Cu0.45H0.7,16.6
P0.2Si0.8V3,16.6
Si0.25V0.75,16.6
Nb3Sn2,16.6
V3Si0.99Be0.01,16.6
Lu1Ni2B2C1,16.6
Nb2.973Zr0.027Al1,16.6
Si1V3,16.6
La1.85Sr0.15Cu0.975Ni0.025O4,16.6
Ca1Fe0.8Co0.2As1F1,16.6
Nd1Fe0.9Rh0.1As1O1,16.6
Li1Fe1As1,16.6
Ba1Fe2As2,16.6
Ca3Al2Fe2P2O5,16.6
Ca4Al2Fe2P2O6,16.6
Nd1.85Ce0.15Cu0.998Co0.002O4,16.5
La1.8Ba0.2Cu1O4,16.5
Ba0.5K0.5Bi1O3,16.5
Nd1.85Ce0.15Cu0.995Fe0.005O4,16.5
La1.735Nd0.15Sr0.115Cu1O4,16.5
La1.75Sr0.25Cu1O4,16.5
Ca1.7Na0.3Cu1Br2O2,16.5
N0.92Nb1,16.5
Nb3Sn0.5Zr0.5,16.5
Si23.8V74.65,16.5
Nb2.919Hf0.081Al1,16.5
Nb0.75Al0.2Ge0.05,16.5
Sc1Ni2B2C1,16.5
Lu1Ni2B2C1,16.5
Nb3Sn0.65Ga0.35,16.5
Nb3Sn0.8Sb0.2,16.5
N1Nb1,16.5
La1.85Sr0.15Cu0.975Ni0.025O4,16.5
Ba1Fe1.77Co0.23As2,16.5
La1.943Sr0.076Cu1O4,16.5
Ca1Fe1.888Co0.112As2,16.5
La0.81Dy0.06Sr0.13Fe1As1O1,16.5
Nb1C1N1,16.5
Sm1Fe0.875Ir0.125As1O1,16.5
Ba0.77K0.23Fe2As2,16.5
Li0.5Ti1N1Cl1,16.5
Pr0.65Sr0.35Fe1As1O1,16.5
Ga1Nb3,16.5
La0.006Si1V2.994,16.48
V2.994La0.006Si1,16.48
Gd1Sr2Ru1Cu2O8,16.45
Ga1V1,16.45
La0.99Rh4P12,16.41
Eu2.17Ce0.5Sr1.33Cu2.5Al0.5O9.02,16.4
La1.88Sr0.12Cu1O4,16.4
Y2C2.9B0.1,16.4
Sm1.844Ce0.156Cu1O4,16.4
Nb3Si0.25Sn0.75,16.4
Nb0.5Sn0.25Ta0.25,16.4
V2.979Co0.021Si1,16.4
Nb2Ta1Sn1,16.4
Si22.5V75,16.4
Nb2Sn1Ta1,16.4
Si10.9V3C0.1,16.4
Nb0.75Al0.225Si0.025,16.4
Nb1C0.3N0.57,16.4
Nb3Sn0.5Ga0.5,16.4
Nb3Ga0.5Zn0.5,16.4
Nb3Sn0.49Ga0.51,16.4
Nb3Ga0.5Sn0.5,16.4
Nb2.7Ti0.3Sn1,16.4
Y1.4Th0.6C2.7,16.4
C0.28N0.76Nb1,16.4
Li0.5Nb1O2,16.4
Ca1Fe0.8Co0.2As1F1,16.4
Ba1Fe1.94Pd0.06As2,16.4
K0.76Fe1.61Se0.96S1.04,16.4
Ba1Fe1.772Co0.228As2,16.4
Lu1Ni2B2C1,16.35
Nb0.87Si0.09N0.87O0.13,16.35
Bi1Pb1Sr1.5La0.5Cu1O6,16.3
La1.85Sr0.15Cu0.97Ni0.03O4,16.3
Y0.65Pr0.35Ba2Cu3O6.85,16.3
Nb3Sn0.5Al0.5,16.3
Y1Ni2Pd,16.3
Ga0.3Nb0.7,16.3
Nb1C0.2N0.64,16.3
Nb3Ga0.65Zn0.35,16.3
Nb3Ga0.65Sn0.35,16.3
Y1.4Th0.6C2.8,16.3
Y1.4Th0.6C2.9,16.3
Pr0.75Sr0.25Fe1As1O1,16.3
Li1Fe1As1,16.3
Sr1Fe1.75Pt0.25As2,16.3
Ba1Fe1.988Mo0.012As2,16.3
K0.5Ti1N1Cl1,16.3
Na0.5Ti1N1Cl1,16.3
Rb0.5Ti1N1Cl1,16.3
Rb0.22Ti1N1Br1,16.3
K0.46Ti1N1Br1,16.3
La1Fe0.99925Mn0.00075As1F0.11O0.89,16.3
Mn0.03Si1V2.97,16.25
V2.97Mn0.03Si1,16.25
Pr1.85Ce0.15Cu1O4.175,16.25
La1.75Sr0.25Cu1O4,16.2
Y1Ba1.8La0.2Cu3.97Zn0.03O8,16.2
Pr0.82La1Ce0.18Cu1O4,16.2
In0.2Si0.8V3,16.2
Si21.75V69.43,16.2
Nb80Ga19.4Fe0.06,16.2
Lu1Ni2B2C1,16.2
Nb3Ga0.8Zn0.2,16.2
Nb3Ga0.8Sn0.2,16.2
Lu0.98La0.02Ni2B2C1,16.2
Nb3Sn0.1Sn0.9,16.2
Pr0.75Sr0.25Fe1As1O1,16.2
Sr0.54Eu0.46Fe1.78Co0.22As2,16.2
Nb0.9Mg0.1N0.87O0.13,16.2
Ca0.85La0.15Fe1As2,16.2
Li1Fe1As1,16.2
Ca0.74La26Fe0.935Co0.065As2,16.2
V3Si0.98Al0.02,16.12
Nd1.84Ce0.16Cu1O3.96,16.1
La1.76Sr0.24Cu0.97Ru0.03O4,16.1
Al0.1Si0.9V3,16.1
Nb3Sn0.1Al0.9,16.1
N1Nb1,16.1
N12.8Nb1,16.1
Lu1Ni2B2C1,16.1
Mg0.6Al0.2Li0.2B2,16.1
Nb3Sn0.65Ge0.35,16.1
Nb3Sn0.5Al0.5,16.1
Ga1Nb3,16.1
Nb3Ga0.9Zn0.1,16.1
Nb3Ga0.9Sn0.1,16.1
Nb0.75Ti0.25N0.94,16.1
La1Fe0.95Co0.05As1F0.11O0.89,16.1
In0.15Nb3Sb0.15Sn0.7,16.09
Ca0.8La0.2Fe0.98Co0.02As2,16.08
Nb3Sb0.15Sn0.7Tl0.15,16.04
Sr0.2La1.8Cu0.95Co0.05O4,16
Ba0.6K0.4Bi1O3,16
Bi2Sr2Sm1.64Ce0.36Cu2O10.24,16
Tl2Ba2Cu1O6.08,16
Nd0.95La0.9Th0.15Cu1O4,16
Nd0.85La1Th0.15Cu1O4,16
La1.85Sr0.15Cu0.985Co0.015O4,16
Y1Sr2Cu2.8V0.2O6.5,16
Y1Sr1.55Ba0.45Cu2.5B0.5O7,16
La1Nd0.86Ce0.14Cu1O3.978,16
Sr1.7K0.3Cu1C1O5,16
Tl1Ba1Sr1Ca1Cu2O7,16
Gd1Ba1.5Sr0.5Cu3O6.63,16
Sr1.2Ba0.8Y1Cu2.8Al0.2O7.19,16
Pr1.87Ce0.13Cu1O3.99,16
La1.7Nd0.15Ca0.056Ba0.094Cu1O4,16
Pr1.8315Y0.0185Ce0.15Cu1O4,16
Nd1.665Y0.185Ce0.15Cu1O4,16
Ru1Sr2Gd1Cu2O8,16
La1.83Nd0.1Ba0.07Cu1O4,16
Tl1Ba0.4Ca0.6La1Cu1O5,16
Nd1.85Ce0.15Cu0.997Ni0.003O4,16
La1.83Sr0.17Cu0.98Co0.02O4,16
La1.5Ba1.4Ca0.1Cu3O6.912,16
La1.5Ba1.3Ca0.2Cu3O6.897,16
La1.5Ba1.3Ca0.2Cu3O7.002,16
La1.75Sr0.25Cu1O4,16
La1.76Sr0.24Cu1O4,16
Y1Ba2Cu3.96Zn0.04O8,16
La1.92Ca0.08Cu1O4,16
La1.985Sr0.015Cu1O4.024,16
Bi2Sr2Cu1O6.13,16
Ru0.9Sn0.1Sr2Eu1Cu2O8,16
N1Nb1,16
V2.97Mo0.03Si1,16
Nb3Sn0.6Ga0.4,16
Nb76Sn2.4Al19.2Ge2.4,16
Lu1Ni2B2C1,16
Nb2.9175Ti0.0825Al1,16
Nb2.895W0.105Al1,16
Sc1Ni2B2C1,16
Li1Hf0.22Zr0.78N1Br1,16
Mg1B1.84F0.16,16
Nb3Al0.67In0.33,16
Nb3Al0.5Zn0.5,16
Nb3In0.2Sb0.2Sn0.6,16
Nb3Al0.5Sn0.5,16
Ga1Nb3,16
Nb2.1Ta0.9Sn1,16
Y1.2Th0.8C2.7,16
Si1V3,16
La1.7Sr0.3Cu1O4,16
La1.89Na0.11Cu1O4,16
La1.912Ca0.0875Cu1O4,16
Li1Fe1As1,16
Na1Fe0.95Co0.05As1,16
Sr1Fe1.84Pt0.16As2,16
Ba0.95K0.05Fe1.782Co0.212As2,16
La1.85Sr0.15Cu0.983Zn0.017O4,16
Pr1Fe0.9Co0.1As1O1,16
Pr0.8Sr0.2Fe0.85Co0.15As1O1,16
Fe1.7Co0.3As2Sr4Mg1Ti1O6,16
Ce1Fe1As0.6P0.4F0.05O0.95,16
K0.5Ti1N1Cl1,16
Ba1Fe1.892Ni0.108As2,16
Sm1Fe0.85Ir0.15As1O1,16
Sm1Fe0.94Mn0.06As1F0.12O0.88,16
Ba1Fe1.97Mn0.03As1.3P0.7,16
Ca10Ir4Fe10As18,16
Ba1Fe1.784Co0.216As2,16
La1.8Eu0.2Cu0.995Zn0.005O3.5,16
Lu1Ni2B2C1,15.96
Si23.27V75.15,15.94
La0.06Si1V2.94,15.92
V2.94La0.06Si1,15.92
Nd1.85Ce0.15Cu1O4,15.9
La1.8Nd0.2Cu1O4.025,15.9
Pr1.85Ce0.15Cu1O4,15.9
Lu1Ni2B2C1,15.9
Nb3Al0.5Ge0.5,15.9
Nb2.7V0.3Sn1,15.9
Si1V3,15.9
Ga1V3,15.9
Sm1Fe0.64Ru0.36As1F0.15O0.85,15.9
Ba1Fe2As1.5P0.5,15.9
Na1Fe0.95Co0.05As1,15.9
Ba0.76Na0.24Fe2As2,15.9
Nb3Sn0.2Sn0.8,15.89
Pr1.85Ce0.15Cu0.998Ni0.002O4.065,15.89
Ba1Fe1.74Zn0.04Co0.22As2,15.82
Gd0.12Pr1.73Ce0.15Cu1O4,15.8
Y0.3Pr0.7Sr2Cu2.85Re0.15O7,15.8
Al0.5Nb3Sn0.5,15.8
Mo0.25Tc0.75,15.8
Nb0.03Si1V2.97,15.8
Si0.263V0.737,15.8
V2.97Nb0.03Si1,15.8
Nb3Sn0.6Sb0.4,15.8
Si10.9V3B0.1,15.8
Si22.5V75,15.8
Lu1Ni2B2C1,15.8
Nb3Sn0.7Al0.3,15.8
Nb3Sn0.7Sb0.3,15.8
Y1.2Th0.8C2.9,15.8
Sm1Fe0.875Co0.125As1O1,15.8
Pr0.8Sr0.2Fe1As1O1,15.8
Y0.9Ca0.1Ba2Cu2.8Zn0.2O6.74,15.8
Pr0.8Sr0.2Fe0.85Co0.15As1O1,15.8
Ba1Fe1.902Co0.098As2,15.8
Sr1Fe1.8Pt0.2As2,15.8
Ca10Pt3.53Fe9.47As18,15.8
Na1Fe0.9825Co0.0175As1,15.8
Ca1Fe1.902Co0.098As2,15.8
Lu1Ni2B2C1,15.75
Nb3Sn0.7Al0.3,15.75
Nb1C1N1,15.75
La1Fe1As0.7P0.3F0.05O0.95,15.75
La1Nd0.91Ce0.09Cu1O3.97,15.7
La1.8Sr0.2Cu0.9777Zn0.0223O4,15.7
Nd1.83Ce0.17Cu1O4,15.7
Sm1.85Ce0.15Cu1O4,15.7
C3Y2,15.7
Al0.2Si0.8V3,15.7
Lu1Ni2B2C1,15.7
Ge1Nb3,15.7
Nb3Sn0.6Al0.4,15.7
Pr1Fe0.925Co0.075As1O1,15.7
Ca1Fe1.82Co0.18As2,15.7
Na1Fe0.977Co0.023As1,15.7
Ba2Ti2Fe1.96Cr0.04As4O1,15.7
C3Y2,15.65
Bi1.5Pb0.5Sr1.7La0.3Cu1O5.993,15.6
La1.85Sr0.15Cu0.8Mg0.2O4,15.6
Pr0.8La1Ce0.2Cu1O4,15.6
La1.8Sr0.2Cu0.98Ru0.02O4,15.6
La1.78Sr0.22Cu0.97Ru0.03O4,15.6
La1.925Sr0.075Cu1O4,15.6
Pd0.7Ag0.3H0.8,15.6
N1Nb1,15.6
V3Si0.76Be0.24,15.6
Sc0.5Lu0.5Ni2B2C1,15.6
Lu1Ni1.991Co0.018B2C1,15.6
Nb2.706V0.294Al1,15.6
Ga22Nb78,15.6
Nb1C0.5N0.36,15.6
Nb2.55Ti0.45Sn1,15.6
Ba1Fe1.42Ru0.58As2,15.6
Li1Fe1As1,15.6
Tb0.56Ca0.44Fe1As1O1,15.6
Sm1Fe0.9Co0.1As1O1,15.6
Fe1Te0.5Se0.5,15.6
Sm1Fe1As0.8P0.2F0.12O0.88,15.6
La1Fe0.991Zn0.009As1F0.08O0.9,15.6
Ca0.74La26Fe0.967Co0.033As2,15.6
Y0.9Lu0.1Ni2B2C1,15.56
Ba1Fe1.52Ru0.48As2,15.55
Ba1Fe1.868Co0.094Cu0.038As2,15.55
Nd1.85Ce0.15Cu0.999Co0.001O4,15.5
Ba0.5K0.5Bi1O3,15.5
Pr1.665Gd0.185Ce0.15Cu1O4,15.5
Nd1.85Ce0.15Cu0.99Zn0.01O4,15.5
Pb0.5Cd0.5Sr1.8Eu1.6Ce0.6Cu2O9,15.5
La1.795Sr0.205Cu0.98Ru0.02O4,15.5
Y0.4Pr0.6Ba1.2Sr0.8Cu3O7,15.5
Pu1Co0.5Rh0.5Ga5,15.5
Mn0.21Si1V2.79,15.5
V2.79Mn0.21Si1,15.5
Nb2.85Mo0.15Al1,15.5
Mo1Ni1P1,15.5
Mo1Ru1P1,15.5
Y1Th1C2.7,15.5
Ba1Fe1.8Co0.2As2,15.5
Pr0.85Sr0.15Fe1As1O1,15.5
Ba1Fe1.916Co0.084As2,15.5
Ca1Fe1.94Co0.06As2,15.5
Pr2Ba4Cu7O14.74,15.5
Ca1Fe1As1F1,15.5
Y1Ni1.98Mn0.02B2C1,15.48
Lu1Ni2B2C1,15.45
Nd1.5Ba1.5Cu3O7.12,15.4
Y1Ba2Cu3O6.38,15.4
La1.93Sr0.07Cu1O4,15.4
Al1Nb2.7V0.3,15.4
Ga1V3,15.4
Nb2.739Ta0.261Al1,15.4
Nb0.75Al0.2Si0.05,15.4
Nb0.75Al0.15Si0.1,15.4
Ga20Nb80,15.4
Nb3Ga0.95Ge0.05,15.4
Y1.4Th0.6C2.4,15.4
Ga0.31V0.69,15.4
Ca1Fe0.9Ni0.1As1F1,15.4
Na1Fe0.975Ni0.025As1,15.4
Pr0.65Sr0.35Fe1As0.95P0.05O1,15.4
La1Fe1As1H0.25O0.75,15.4
Ce0.12Si1V2.88,15.32
V2.88Ce0.12Si1,15.32
Nd1.85Ce0.15Cu0.997Ni0.003O4,15.3
La1.75Sr0.25Cu0.97Ru0.03O4,15.3
Ga0.25V0.75,15.3
Ga0.2Nb0.8,15.3
Nb3Ga0.95Ge0.05,15.3
Lu0.95La0.05Ni2B2C1,15.3
Ga1V3,15.3
Ga25V75,15.3
Nb5Ge3C0.3,15.3
La1.9Sr0.1Cu0.9925Zn0.0075O4,15.23
N1Nb1,15.23
La1.7Sr0.3Cu1O4,15.2
La1.83Sr0.17Cu0.97Ni0.03O4,15.2
Tl1Sr2Ca1Cu2O6.862,15.2
Li0.06Zr1N1Cl1,15.2
Mo6Pb0.92S7.5,15.2
N1Nb1,15.2
Nb77.5Sn5.6Al11.3Ge5.6,15.2
Nb2.85W0.15Al1,15.2
Ga20Nb80,15.2
N0.8H2.4Na1Rb2C60,15.2
Li0.28Zr1N1Cl1,15.2
K0.22Zr1N1Cl1,15.2
K0.4Zr1N1Cl1,15.2
Y0.16Lu0.84Ni2B2C1,15.2
Y0.92Lu0.08Ni2B2C1,15.2
Nb0.92Ti0.08N0.93,15.2
Ga1V3,15.2
C3Y2,15.2
Ca1Fe1.85Co0.15As2,15.2
Fe1Se0.5Te0.5,15.2
Na0.23Ti1N1Br1,15.2
Ba0.8Na0.2Fe2As2,15.2
Ba1Fe2As1.04P0.96,15.2
Ca1.89Na0.11Cu1Cl2O2,15.14
Nd1.85Ce0.15Cu0.99Zn0.01O4,15.1
Ga0.248V0.752,15.1
Nb3Sn0.6Al0.4,15.1
Sc0.9Y0.1Ni2B2C1,15.1
Ho0.15Lu0.85Ni2B2C1,15.1
Nb0.5Ti0.5N0.95,15.1
Lu0.94La0.06Ni2B2C1,15.1
Y0.8Th1.2C2.7,15.1
Mo1N1,15.1
Ga24.8V75.2,15.1
Ba1Fe1.936Ni0.064As2,15.1
Ba1Fe1.91Co0.09As2,15.1
Li1Fe1As1,15.1
Ca1Fe1.94Co0.06As2,15.1
Pb1Mo6S8,15.05
La1.85Sr0.15Cu0.925Zn0.025O4,15
La1.84Sr0.16Cu0.975Ni0.025O4,15
Eu1.25La0.6Ce0.15Cu1O4,15
Eu0.85La1Ce0.15Cu1O4,15
Nd0.85La1Ce0.15Cu1O4,15
Bi1Pb1Sr0.2Pr0.2Cu1O6,15
La1.85Sr0.15Cu0.985Al0.015O4,15
La1.8Ca1.032Sr0.168Cu2O6.08,15
Eu0.6Pr0.4Ba2Cu3O6.97,15
La1.95Sr0.05Cu1O4,15
Tl2Ba2Cu1O6,15
Y1Ba2Cu3O6.35,15
Y1Sr0.5Ba1.5Cu2.5B0.5O7,15
Ca1.702Cu0.851Cl1.851Na0.149O2.404,15
Pr1.7945Y0.0555Ce0.15Cu1O4,15
Sm1.80375Y0.04625Ce0.15Cu1O4,15
Y0.6Pr0.4Ba2Cu3O6.53,15
La1.7Nd0.2Ba0.1Cu1O4,15
La1.9Gd0.1Ba2Ca0.2Cu4.2O9.839,15
Yb0.45Pr0.55Ba1.7Sr0.3Cu3O6.91,15
La1.735Nd0.14Sr0.125Cu1O4,15
La1.78Sr0.22Cu0.99Zn0.01O4,15
La1.75Sr0.25Cu1O3.93,15
Y1Ba2Cu3O6.68,15
Nd1.11Gd0.74Ce0.15Cu1O4,15
Sm1.7575Gd0.0925Ce0.15Cu1O4,15
Sm1.05Gd0.8Ce0.15Cu1O3.97,15
La1.85Sr0.15Cu0.9825Zn0.0175O4,15
La1.45Nd0.4Sr0.15Cu1O4,15
La1.92Ce0.08Cu1O4,15
Ca1.875Na0.125Cu1Br1Cl1O2,15
Ca1.9Cu1Cl2O2,15
Ba1.34Eu2Ce0.66Cu3O8.96,15
C1,15
Pr1.83Ce0.17Cu1O4,15
B3Mo6S8Sn1,15
Mo0.7Re0.3,15
Nb1Ru3,15
Na4H4C60,15
Ca1,15
Nb2.88Ti0.12Al1,15
Nb0.75Al0.2Ge0.05,15
Nb80Ga19Fe1,15
K2.75Ba0.25C60,15
Li0.16Zr1N1Cl1,15
Li0.14Zr1N1Cl1,15
Li0.55Zr1N1Cl1,15
Li0.65Zr1N1Cl1,15
Na0.5Zr1N1Cl1,15
Na0.59Zr1N1Cl1,15
K0.46Zr1N1Cl1,15
Y0.3Lu0.7Ni2B2C1,15
Nb2.55V0.45Sn1,15
N1Nb1,15
Pb1Mo6S8,15
Pu1Co1Ga5,15
Sm1Fe0.925Co0.075As1O1,15
Na1Fe1As1,15
Ca1Fe1.94Ni0.06As2,15
Pr1Fe0.925Co0.075As1O1,15
Nd1Fe0.9Rh0.1As1O1,15
Fe1Te0.5Se0.5,15
Ba0.5K0.5Fe1.92Mn0.08As2,15
Li0.05Zr1N1Cl1,15
Ba0.49K0.51Fe1.79Co0.21As2,15
Fe2As2Ca5Al1.5Ti1.5O9,15
Fe1P1Sr2Sc1O3,15
Lu1Ni2B2C1,15
Fe1Te0.57Se0.43,15
Pr0.8Sr0.2Fe1As1O1,15
Sm1Fe0.9Co0.1As1O1,15
Ba1Fe1.44Ru0.56As2,15
Fe1Te0.65Se0.35,15
Ca1.875Na0.125Cu1Cl2O2,15
Li1Fe1As1,15
Ba0.81K0.19Fe2As2,15
Nb0.95Mg0.05N0.92O0.08,15
Ce1Fe1As0.55P0.45F0.05O0.95,15
Zn0.04Zr1N1Cl1,15
Mg0.16Zr1N1Cl1,15
Ba0.805K0.195Fe2As2,15
La1Fe0.995Mn0.005As1F0.11O0.89,15
La1.8Eu0.2Cu0.99Ni0.01O3.5,15
Y0.6Pr0.4Ba2Cu3O6.5,14.9
La1.62Nd0.2Ba0.18Cu1O4,14.9
Ga0.253V0.747,14.9
N0.988Nb1,14.9
Nb0.8Ga0.195Cr0.005,14.9
Y0.5Lu0.5Ni2B2C1,14.9
Lu0.5Y0.5Ni2B2C1,14.9
Y0.75Lu0.25Ni2B2C1,14.9
Ga25.3V74.7,14.9
La0.8Rh4P12,14.9
Tb1Fe1As1O0.7,14.9
Pb1Mo6S8,14.9
Ca10Pt3.72Fe9.28As18,14.9
La3Ni2B2N3,14.9
Dy1Ba1Sr1Cu3O6.6,14.85
Ba0.46K0.56Bi1O2.965,14.8
La1.79Sr0.21Cu0.97Ru0.03O4,14.8
Mo1N1,14.8
La0.5Lu0.5Ni2B2C1,14.8
Nb2.927Zr0.073Al1,14.8
Pb0.98Cu0.036Mo6S8,14.8
Sc0.8Y0.2Ni2B2C1,14.8
Y0.84Lu0.16Ni2B2C1,14.8
Y1.8W0.2C3.1,14.8
Fe1Te0.6Se0.4,14.8
Ca1Fe1.874Co0.126As2,14.8
Ba1Fe1.936Ni0.064As2,14.8
Ba1Fe1.892Ni0.108As2,14.8
Fe1Se0.42Te0.58,14.8
Fe1Se0.3Te0.7,14.8
Ca9.72Tm0.28Pt3Fe10As18,14.8
Ba0.82La0.18Fe2As2,14.8
P0.3Si0.7V3,14.75
N0.88Nb0.256Ti0.744,14.72
Sm1.8Ce0.2Cu1O4,14.7
Ba0.6K0.4Bi0.8Pb0.2O3,14.7
Na1N1C60,14.7
La1.89Sr0.11Cu0.995Fe0.005O4,14.7
Y1Ba2Cu3.92Ni0.08O8,14.7
C0.75Mo1,14.7
Nb1N0.9O0.02,14.7
Mo0.4Tc0.6,14.7
V3Ga0.975Bi0.025,14.7
Y1Ni1.95Cu0.05B2C1,14.7
Na3N1C60,14.7
Na3.5N0.5C60,14.7
Y1.6Th0.4C2.7,14.7
Nd1Fe0.85Rh0.15As1O1,14.7
Pr1Fe0.9Co0.1As0.9P0.1O1,14.7
Y0.2Lu0.8Ni2B2C1,14.68
Ba0.7K0.3Bi0.7Pb0.3O3,14.6
Ga0.236V0.764,14.6
Nb3Sn0.4Ga0.6,14.6
Nb3Sn0.2Al0.8,14.6
Nb3Sn0.81Al0.19,14.6
Nb2.91Zr0.09Al1,14.6
Nb0.7275Zr0.0225Al0.25,14.6
Mg0.6Al0.4B2,14.6
Y0.6Th1.4C2.5,14.6
Y0.6Th1.4C2.9,14.6
Ga23.6V76.4,14.6
Ba1Fe1.906Co0.094As2,14.6
Ba1Fe1.936Ni0.064As2,14.6
Pr1Fe1As1F0.082O0.918,14.6
Ba1Fe1.784Co0.216As2,14.6
Fe1Se0.5Te0.5,14.6
Si1Ti0.15V2.85,14.55
Pb1Mo5.1S4,14.51
Pr1.7575Y0.0925Ce0.15Cu1O4,14.5
La1.897Ba0.103Cu1O4,14.5
Pr1.48Gd0.37Ce0.15Cu1O4,14.5
Nd1.85Ce0.15Cu0.987Zn0.013O4,14.5
La1.9Sr0.1Cu0.9925Zn0.0075O4,14.5
C1.55W0.1Y0.9,14.5
Ga1Nb3,14.5
Ga1V3,14.5
N1Nb1,14.5
Si0.206V0.794,14.5
Nb2.64Ta0.36Al1,14.5
Na0.66Zr1N1Cl1,14.5
Sc0.7Y0.3Ni2B2C1,14.5
Y0.5Lu0.5Ni2B2C1,14.5
Y1.8W0.2C2.9,14.5
Y1.8Ti0.2C3.1,14.5
Th1Pd2B2C1,14.5
Ga0.25V0.75,14.5
Ba1Fe1.91Co0.09As2,14.5
Nd1Fe0.5Ru0.5As1F0.11O0.89,14.5
Ba1Fe1.32Ru0.68As2,14.5
Fe1Se0.3Te0.7,14.5
Sr1Fe2As1P1,14.5
La1Fe1As1F0.05O0.95,14.5
Ba1Fe1.85Ni0.15As2,14.5
Ba0.2K0.8Fe2As2,14.5
Sn0.6Mo3S4,14.45
Y0.95Tb0.05Ni2B2C1,14.42
Nd1.85Ce0.15Cu0.998Co0.002O4,14.4
La1.83Sr0.17Cu0.97Ni0.03O4,14.4
La0.75Sr0.25Cu1O4,14.4
Ca0.2Ba1.55La1.25Cu3O6.99,14.4
Ca0.4Ba1.35La1.25Cu3O6.92,14.4
Li1Ti1.91Cu0.09O4,14.4
Ba0.6K0.4Bi0.955Pr0.045O3,14.4
Ge0.1Si0.9V3,14.4
Mo5.1Pb1S6,14.4
Nb76.3Sn10.5Ge2.3Al10.9,14.4
N0.824Nb1,14.4
Nb2.85Hf0.15Al1,14.4
Li1Zr1N1Cl1,14.4
Li1Zr1N1Cl0.75Br0.25,14.4
Pb1Mo6S8,14.4
K0.6Zr1N1Cl1,14.4
Nb3Sn0.5Sb0.5,14.4
Y0.6Th1.4C2.7,14.4
N1.07Nb1,14.4
Y0.45Pr0.55Ba2Cu3O6.953,14.4
Ba1Fe1.892Ni0.108As2,14.4
Pr1Fe0.925Co0.075As1O1,14.4
Sr1Fe1.766Co0.234As2,14.4
Fe0.98Mn0.02Se0.5Te0.5,14.4
Fe1Te0.4Se0.4,14.4
Fe1Se0.4Te0.6,14.4
La1Fe0.99925Mn0.00075As1F0.11O0.89,14.4
Si0.22V0.78,14.38
Eu1Fe1.86Rh0.14As2,14.35
Bi2Sr1.6La0.4Cu1O6.26,14.3
La1.9Ba0.1Cu0.99Ga0.01O4,14.3
Gd0.5Nd1.35Ce0.15Cu1O4,14.3
Ca0.3Nd0.7Ba1La1Cu3O7.24,14.3
C1Mo1,14.3
Gd0.2Mo6Pb1S8,14.3
Nb3Sn0.81Ge0.19,14.3
Y1Ni1.985Cu0.015B2C1,14.3
Y1Ni1.98Co0.02B2C1,14.3
Li1Zr1N1Cl0.525Br0.475,14.3
Na0.75Zr1N1Cl1,14.3
Pb0.7Eu0.3Gd0.2Mo6S8,14.3
Fe1.03Se0.5Te0.5,14.3
La1Fe1As1F0.18O0.82,14.3
Fe1Te0.6Se0.4,14.3
Fe1Te0.5Se0.5,14.3
Y1Ba2Cu2.79Zn0.21O6.97,14.2
Gd0.31Sm1.54Ce0.15Cu1O4,14.2
Bi2Sr1.3Nd0.7Cu1O6.417,14.2
La1.76Sr0.24Cu1O4,14.2
Al0.5Mo5S6Sn1,14.2
C0.75Hf0.05Mo0.95,14.2
C1.45La0.5Th0.5,14.2
Mo3S4Sn0.6,14.2
Nb0.625Sn0.25V0.125,14.2
V0.5Nb2.5Sn1,14.2
Nb2.5Sn1V0.5,14.2
Mo0.95Hf0.05C0.75,14.2
Lu1Ni2B2C1,14.2
Li1Zr1N1I1,14.2
Lu0.25Y0.75Ni2B2C1,14.2
Li0.17Zr1N1Cl1,14.2
Y1.8Ti0.2C2.9,14.2
Sn1Mo6S8,14.2
Ba1Fe1.924Co0.076As2,14.2
Pr1Fe0.9Co0.1As0.95P0.05O1,14.2
Fe1Se0.4Te0.6,14.2
Ga1V3,14.19
Ba1Fe1.58Ru0.42As2,14.125
La1.83Ca1.006Sr0.164Cu2O6.08,14.1
La1.805Sr0.195Cu0.98Ru0.02O4,14.1
La1.73Sr0.27Cu0.97Ru0.03O4,14.1
Al1Cr0.3Nb2.7,14.1
Nb3Sn0.61Al0.39,14.1
Nb0.8Ga0.19Ni0.01,14.1
Li1Zr1N1Cl0.255Br0.745,14.1
Li1Zr1N1Br1,14.1
Nb1.8Ta1.2Sn1,14.1
Ga0.3V0.7,14.1
Ba1Fe1.782Co0.218As2,14.1
Y0.95Pr0.05Ni2B2C1,14.1
La1Fe0.995Zn0.005As1O0.85,14.1
Fe1.04Se0.33Te0.67,14.1
Fe1.05Se0.15Te0.85,14.1
Ca1Fe1.75Co0.25As2,14.1
La0.8Y0.2Fe0.98Mn0.02As1F0.11O0.89,14.1
Ba1Fe1.85Ni0.15As2,14.1
Si10.9V3Al0.1,14.05
Sn0.875Mo6S8,14.048
Bi2Sr2Nd1.64Ce0.36Cu2O10.23,14
Bi1Pb1Sr0.3Pr0.3Cu1O6,14
La1.76Ba0.24Cu1O4,14
La1.78Sr0.22Cu0.97Ni0.03O4,14
Y0.3Pr0.7Ba1Sr1Cu3O6.95,14
Al1Sr2Ca1.4Y0.6Cu3O9.1,14
Y0.25Pr0.75Sr2Cu2.8Re0.2O7,14
Nd1Ba2Cu3O6.6,14
Ca1La1Ba1Cu2.88Zn0.12O7,14
La0.4Pr0.4Ba1Ca1Cu3O7,14
La1Ba1Cu2.82Co0.18O7,14
Sm1.7575Y0.0925Ce0.15Cu1O4,14
Tl1Ba0.6Ca0.4La1Cu1O5,14
Eu1Ba2Cu2.8Ga0.2O6.63,14
Nd1.85Ce0.15Cu0.985Zn0.015O4,14
H0.1La1.89Sr0.11Cu0.995Fe0.005O4,14
La1.94Sr0.06Cu1O4,14
La1.9Sr0.1Cu0.99Zn0.01O4,14
La0.65Ca0.05Pr0.3Ba1.5Sr0.5Cu3O6.896,14
Bi2Sr2Cu1O6.14,14
Ba0.445K0.555Bi1O3,14
Ru1Sr1.98La0.02Eu1Cu2O8,14
Zr1N1Cl0.7,14
Mo6Pb1S7,14
Mo0.57Re0.43,14
Mo0.45Tc0.55,14
Mo0.5Tc0.5,14
Mo6Pb0.92S7.5,14
V2.964Mo0.036Si1,14
V3Si0.9Ge0.1,14
V3Si0.8Al0.2,14
V3Si0.9Al0.1,14
C1Nb1,14
Si0.9V3Ge0.1,14
Y1Ni1.8Pd0.2B2C1,14
Lu1Ni1.97Co0.06B2C1,14
Nb2.55V0.45Al1,14
Nb3Al0.7Be0.3,14
Na2Cs1C60,14
Ca1Si2,14
Y0.95Pr0.05Ni2B2C1,14
Y0.95Gd0.05Ni2B2C1,14
Li1,14
S1,14
V0.73Si0.25Al0.02,14
Sn1Mo6S8,14
Mo6S6I2,14
La1Fe0.89Co0.11As1O1,14
La1.92Ca0.08Cu1O4,14
Fe1Te0.67Se0.33,14
Fe1Te0.5Se0.5,14
Li0.1Zr1N1Cl1,14
Sm1Fe1As1F0.085O0.915,14
Fe1Se0.39Te0.61,14
Fe1.06Te0.5Se0.5,14
Fe1Se0.25Te0.75,14
Fe1.11Te0.6Se0.4,14
Na1Fe0.93Co0.07As1,14
La1Fe0.9Rh0.1As1O1,14
La1Fe0.85Rh0.15As1O1,14
Ba0.805K0.195Fe1.738Co0.262As2,14
Pr0.8Sr0.2Fe1As1O1,14
Ba1Fe1.922Rh0.078As2,14
Li0.99Fe1.01As1,14
Ca0.8Na0.2Fe2As2,14
Fe1.04Te0.6Se0.4,14
Fe1Se0.4Te0.6,14
Na0.16Ti1N1Cl1,14
Fe1.03Te0.6Se0.4,14
Ba0.81K0.19Fe2As2,14
Ca0.85Nd0.15Fe1As2,14
Zn0.035Zr1N1Br1,14
La1.8Eu0.2Cu0.99Zn0.01O3.5,14
Fe1Te0.6Se0.4,14
Hg0.75Ba2.07Ca2.07Cu3.11O8.208,135.8
Hg0.75Ba2.07Ca2.07Cu3.11O8.187,135.4
Hg1Ba2Ca2Cu3O8.27,135
Hg1Ba2Ca2Cu3O8.29,135
Hg0.75Ba2.07Ca2.07Cu3.11O8.15,134.7
Hg0.75Ba2.07Ca2.07Cu3.11O8.16,134.2
Hg0.8Mo0.2Ba2Ca2Cu3O8.4,134
Hg0.6Ti0.4Ba2Ca2Cu3O8.4,134
Hg1Ba2Ca2Cu3O8,134
Hg1Ba2Ca2Cu3O8.3,134
Hg1Ba2Ca2Cu3O8.35,134
Hg0.75Ba2.07Ca2.07Cu3.11O8.223,133.4
Hg1Ba2Ca2Cu3O8,133
Hg1Ba2Ca2Cu3O8.41,133
Hg1Ba2Ca2Cu3O8.3,133
Hg0.75Ba2.07Ca2.07Cu3.11O8.136,132.9
Hg0.85Re0.15Ba2Ca2Cu3O8,132.9
Hg1Ba2Ca2Cu3O8,132
Hg0.8Pb0.2Ba2Ca2Cu3O8,132
Hg1Ba2Ca2Cu3O8.25,132
Cu1Cr1O2,132
Hg0.85Re0.15Ba1.66Sr0.34Ca2Cu3O8,131.3
Hg0.85Re0.15Ba1.6Sr0.4Ca2Cu3O8,130.3
Hg0.8Bi0.2Ba2Ca2Cu3O8.2,130
Hg0.7Pb0.3Ba2Ca2Cu3O8.35,130
Hg0.9Pb0.1Ba2Ca2Cu3O8,130
Pb0.92Mo6S7.5,13.98
La1.82Ba0.18Cu0.99Zn0.01O4,13.9
La1.4Nd0.4Sr0.2Cu1O4,13.9
La1.885Ba0.115Cu1O4,13.9
Y2Ba4Cu7O14.19,13.9
La1.92Ce0.08Cu1O4,13.9
La1.85Sr0.11Ho0.04Cu1O4,13.9
Al0.1Ga0.9V3,13.9
Al0.3Ga0.7V3,13.9
In1V3,13.9
Nb3Si0.27Sn0.73,13.9
Nb76.3Sn7.1Al14.3Ge2.3,13.9
Ga0.255V0.745,13.9
Mo0.95V0.05C1,13.9
Mo0.9Re0.1C1,13.9
C3Y2,13.9
Ba1Fe1.892Ni0.108As2,13.9
Ba1Fe2As0.88P1.12,13.9
Sm1Fe0.7Ru0.3As1F0.15O0.85,13.9
Ba0.2K0.8Fe2As2,13.9
Eu0.6Sr0.4Fe1.715Co0.285As2,13.9
Sr1Fe1.792Co0.208As2,13.9
Fe1Se0.5Te0.5,13.9
Fe1.03Te0.72Se0.28,13.9
Na1Fe0.9875Co0.0125As1,13.9
La0.9Sr0.1Fe1As0.8P0.8O1,13.88
Ga1V3,13.87
H0.27La1.89Sr0.11Cu0.995Fe0.005O4,13.8
La1.85Sr0.15Cu0.98Zn0.02O4,13.8
La1.936Ce0.064Cu1O4,13.8
C1.45Mo0.1Y0.9,13.8
C1Mo0.9Re0.1,13.8
N0.93Nb0.85Zr0.15,13.8
Y1Ni1.9Cu0.1B2C1,13.8
Ho0.25Y0.75Ni2B2C1,13.8
Nb2.775Mo0.225Al1,13.8
Li1,13.8
Ga0.247V0.753,13.8
Nb0.96Ti0.04N0.9,13.8
Y1.8Mo0.2C2.9,13.8
Mo6S6Br2,13.8
Ga1V3,13.8
Fe1Se0.328Te0.492,13.8
Pr1Fe0.9Co0.1As1O1,13.8