formula,Tc
Be13Lu1,0.62
Th1Pd2Ge2,0.62
Sr2Ru1O4,0.616
Y1V2Al20,0.61
Pr1Ti2Al20,0.61
Co28U72,0.6
Lu1V2Al20,0.6
Lu1Pd2Si2,0.6
Al0.999Mn0.001,0.596
Co0.015Mo99.985,0.59
Be13U0.9755Th0.0245,0.59
Au0.835Sn0.165,0.59
Ce0.85Sm0.15Co1In5,0.59
U0.97Th0.03Be13,0.585
Os0.9Ru0.1,0.584
Ce0.025Th0.975,0.58
La1Ir2Zn20,0.58
Ba1Ni2As2,0.575
U0.9981Th0.019Be13,0.573
Ce1Pd5Al2,0.57
Lu1Sn1Ge1,0.57
Os0.666Ru0.334,0.569
U0.962Th0.038Be13,0.56
Ce1Pt3Si0.94Ge0.06,0.56
U0.978Th0.022Be13,0.558
U0.9622Th0.0378Be13,0.557
Ce1Co1In4.86Sn0.14,0.556
Pt3U1,0.553
Th0.9988U0.0012,0.55
Be13U0.9645Th0.0355,0.55
Lu0.8Zr0.2B12,0.55
Pt3U1,0.547
Ce1Pt2.94Ni0.06Si1,0.545
Cd1,0.541
U1Co1Ge0.96Si0.04,0.541
Cu50Zr50,0.54
Ir0.15Os0.85,0.54
Ta1Ir1Te4,0.54
U0.957Th0.043Be13,0.533
Y2Ni1Ge3,0.533
U0.962Th0.038Be13,0.532
Ni14.3U85.7,0.53
Be13U1,0.53
U0.983Th0.017Be13,0.525
Cd1,0.5218
Hf1As1.7Se0.2,0.52
U0.9822Th0.0178Be13,0.519
U0.9815Th0.0185Be13,0.519
Cd1,0.518
Cd1,0.5173
Cd1,0.5148
Cd1,0.5115
Pb0.9922Tl0.0078Te1,0.51
Fe0.011Mo99.989,0.51
U1.02Ni2Al3,0.51
U0.983Th0.017Be13,0.51
Ru1,0.509
Pt3V1,0.508
Pt3U1,0.507
Fe30Zr70,0.5
Pd50.49V0.51Sb49,0.5
Ta1Ir1Si1,0.5
La2Bi3Ag1S6O2,0.5
Th0.9985U0.15,0.495
Ru1,0.493
Mo1Te1.9Se0.1,0.49
Cr0.82Re0.18,0.49
Be13U0.9807Th0.0193,0.48
Bi3Co1,0.48
Ru1,0.478
Ce1Ir1In4.946Hg0.054,0.476
Ce1Pt2.82Ni0.18Si1,0.473
Cu1Y1,0.47
In1N1,0.47
Sr2Ru0.99875Ti0.00125O4,0.46
U0.9545Th0.0455Be13,0.46
Mo1Te1.94Se0.06,0.46
Ce1Pt3Si0.94Ge0.06,0.4505
Lu1Pt2In1,0.45
U0.85Ti0.15,0.45
La0.5Ce0.5Ru2,0.449
U1Pt2.997Pd0.003,0.447
Ce1Co1In4.85Sn0.15,0.44
Ce1Co1In4.925Cd0.075,0.44
Au0.865Sn0.135,0.435
Au0.855Sn0.145,0.43
Pa1,0.43
Ce1Ir0.956Pt0.044In5,0.429
U1Co1Ge0.94Si0.06,0.423
U1Co1Ge1,0.42
Lu1Pt1.6Pd0.4In1,0.42
U0.9535Th0.0465Be13,0.415
Bi1.1Nb1S3.1,0.415
La1Pt2Ge2,0.41
Sn0.576Pb0.384In0.04Te1,0.4
Y1Co2Ge2,0.4
Lu1Pt0.4Pd1.6In1,0.399
Ce1Pd2Si2,0.395
La2Ni1Ge3,0.394
Ti1,0.39
Cd99.995Mn0.005,0.39
Al0.14Au0.86,0.385
La0.9973Ce0.0027Rh3B2,0.38
Rh0.04Ru0.96,0.38
W1F0.45O2.55,0.38
C1,0.37
Au1Lu1,0.37
Au63.5Ge20.5Yb16,0.36
La1Al1O3,0.36
Cu50Zr50,0.35
U1Co1Ge1,0.35
Eu1Bi1S2F1,0.35
Si2Ta1,0.345
Pd0.72W0.28,0.345
U0.9397Th0.0603Be13,0.344
Ti1,0.34
B0.057Si0.943,0.34
U1Pd2Al2.4Ga0.6,0.33
Au0.875Sn0.125,0.33
Au0.635Ge0.205Yb0.16,0.325
Pr0.342Th0.658,0.32
Ce3Pt1In11,0.32
Ge0.937Te1,0.311
Co0.032Mo99.968,0.31
Ce1Pt3Si0.9Ge0.1,0.31
Th0.998U0.2,0.304
La1Ti2Al20,0.3
La1Al1O3,0.296
Ir0.9Mo0.1,0.29
Pr0.65Ce0.35Pt4Ge12,0.29
U1Co1Ge0.92Si0.08,0.288
Pr0.25La0.75Ir2Zn20,0.28
Ce1Co0.83Pt0.17In5,0.28
Sr1Ti1O3,0.27
Ta1Se0.7Te1.3,0.27
Au0.9Ga0.1,0.264
Al0.998Mn0.002,0.262
S1N1,0.26
U1Rh1Ge1,0.26
Ge2U1,0.258
La4Sb3,0.25
Ge0.95Te1,0.246
Cu0.81Ge0.19,0.24
S1N1,0.235
U1Ru1.99Re0.01Si2,0.23
U1Rh1Ge1,0.222
Co0.038Mo99.962,0.22
Ta1Se2,0.22
Be13U1,0.22
Sr1Ti1O3,0.214
Sn1Te1,0.214
Pt0.73W0.27,0.213
Re0.2Ta0.8,0.21
Au0.885Sn0.115,0.21
Sn1Te1,0.207
S1N1,0.205
Sm1Fe1As1H0.03O0.97,0.2
Pr1Ti2Al20,0.2
Ca24Al28O66,0.195
Ce1Ir1In4.875Cd0.125,0.194
In3Rh1,0.19
Pr1Ti2Al20,0.19
Sn0.97Te1,0.189
As2Cd3,0.186
Cd0.8Mg0.2,0.185
Cu0.845Sb0.155,0.184
Rh0.6Ru0.4Se2,0.18
Ir0.71Ru0.29,0.18
Cu0.815Ge0.185,0.175
Mo1Te2,0.175
Sn1Te1,0.174
Ir0.925Nb0.075,0.172
Ge0.963Te1,0.171
Ce1In3,0.17
Sn1Te1,0.168
Sn0.965Te1,0.168
Sn0.966Te1,0.167
Fe0.018Ru0.982,0.165
Sn0.975Te1,0.165
Ir0.953W0.047,0.162
Ir0.725Os0.175Rh0.1,0.16
U1Ni1.95Al3.05,0.16
Al0.02Au0.92Ga0.06,0.158
Bi1.5La4Sb1.5,0.158
Bi3La4,0.155
Sn0.97Te1,0.155
U1Co1Ge0.9Si0.1,0.153
C8.1K1,0.152
Ag7B1F4O8,0.15
La1V2Al20,0.15
Ir0.965V0.035,0.147
Ru3U1,0.145
Cu0.825Ge0.175,0.145
Ir0.96Re0.04,0.142
Ir0.765Ru0.235,0.142
Tl1Bi1Te2,0.141
Pr1Ti2Al20,0.14
Zr1As1.58Se0.39,0.14
Cd0.9Mg0.1,0.138
Ir0.965Nb0.035,0.138
Au0.92Ga0.068In0.012,0.137
C8Cs1,0.135
Be13Th1,0.135
C8K1,0.134
Sr1Ti1O3,0.133
Ir0.973Mo0.027,0.133
La3Sb3Y1,0.13
Cu0.82Ge0.18,0.13
Hf1,0.128
Ir0.97Ta0.03,0.127
Ag0.667Al0.333,0.126
Ir0.925Ta0.075,0.125
Sn0.976Te1,0.125
Ir0.71Mo0.29,0.12
Pt1Sb1S1,0.12
Cu0.84Ge0.16,0.117
Ir0.99Ta0.01,0.116
Ag0.828Ga0.172,0.116
Ir0.98V0.02,0.115
Ir0.98Nb0.02,0.115
Ir1,0.113
Ir0.95Re0.02,0.112
Ag0.7Al0.3,0.11
Ce1Rh1In5,0.11
Sn0.97As0.005Te0.995,0.108
Ir0.987Mo0.013,0.107
Ir0.987W0.013,0.107
Ag0.625Al0.375,0.106
Cd0.7Mg0.3,0.105
Ir0.89Ru0.11,0.105
Sn1Te1,0.104
Ir0.99Nb0.01,0.102
Al0.04Au0.92Ga0.04,0.101
Ir0.765Os0.085Rh0.15,0.096
Ir0.0875Rh0.0875Os0.825,0.095
Ir0.55Os0.15Rh0.3,0.095
Mo0.8Nb0.2,0.095
Pr0.73La0.27Ir2Zn20,0.093
Sn0.98Te1,0.092
Ag0.795Sn0.205,0.09
Ag0.775Sn0.225,0.09
Al0.08Au0.92,0.088
Ag0.6Al0.4,0.088
Sn0.97Te1,0.087
Cu2Sb1,0.085
Cu0.85Ge0.15,0.084
Pd1V3,0.082
Yb1Al1B4,0.08
Au0.9In0.1,0.077
Al0.07Au0.92In0.01,0.0763
Hf1Mo2,0.076
Ir0.95Rh0.05,0.075
La1Rh2Si2,0.074
Sn0.97As0.01Te0.99,0.073
Cr0.75Rh0.25,0.072
Cu0.83Ge0.17,0.072
Ge0.976Te1,0.071
Pr0.96La0.04Ir2Zn20,0.07
La1Os2Zn20,0.07
Ir0.96Pd0.04,0.069
Au0.92Ga0.04In0.04,0.0682
Sn1Te1,0.068
Sn0.97As0.005Te0.995,0.068
Al0.05Au0.92In0.03,0.0672
Cu0.844Sb0.156,0.067
Ir0.9Ta0.1,0.067
Ag2F1,0.066
Ag0.82Sn0.18,0.066
Hf1Mo2,0.065
Sn1Te1,0.065
Au0.9In0.1,0.0641
Ir0.07Rh0.07Os0.86,0.064
Ir0.8Ru0.05Rh0.15,0.064
Au0.9In0.1,0.0625
Al0.06Au0.92In0.02,0.0619
Pb0.996Tl0.004Te1,0.061
Al0.0563Au0.92In0.0237,0.0609
Pr1Os2Zn20,0.06
Pr1Rh2Zn20,0.06
Cu0.86Si0.14,0.058
Sn0.97As0.017Te0.983,0.058
Al0.04Au0.92In0.04,0.0555
Ir0.2Ru0.3Rh0.5,0.055
Ag0.825Sn0.175,0.055
Fe0.031Ru0.969,0.054
Ag5Pb2O6,0.0524
Ir0.984Ni0.016,0.052
Ir1,0.051
Sn0.97As0.015Te0.985,0.051
Pr1V2Al20,0.05
Sn0.985Te1,0.0485
Sn0.97As0.006Te0.994,0.048
Pr1V2Al20,0.048
Au0.95Sn0.05,0.047
Ag0.835Sn0.165,0.047
Co0.004Ir0.996,0.046
Ir0.8Pt0.2,0.046
Cr0.476Mo0.524,0.045
Al0.03Au0.92In0.05,0.045
Sn0.985Te1,0.0433
Au0.92Ga0.02In0.06,0.0425
Au0.91In0.09,0.0423
Cu6La1,0.042
Cu3Sb1,0.041
Mo1Te1.63S0.37,0.04
Pr1V2Al20,0.039
Sn0.97As0.007Te0.993,0.038
Os0.32Rh0.68,0.0376
Ir0.83Pd0.045Pt0.125,0.037
Ag0.845Sb0.155,0.037
Ir0.88Pd0.12,0.035
Au0.84In0.16,0.035
Sn1Te1,0.034
Al0.02Au0.92In0.06,0.034
Sn0.97As0.022Te0.978,0.0332
Ir0.7Ru0.25Rh0.5,0.033
Au0.95Ga0.05,0.032
Sn0.97As0.02Te0.98,0.0318
Au0.915In0.085,0.031
Ir0.8Rh0.2,0.03
La0.8Pr0.2Se1,0.03
Sn0.99Te1,0.0285
Ag0.865Sb0.135,0.028
Al0.01Au0.92In0.07,0.0278
Be1,0.026
Au0.92In0.08,0.0256
C8Rb1,0.0252
Ag0.845Sn0.155,0.025
Cu0.86Ge0.14,0.025
Sn0.99Te1,0.024
C8Rb1,0.023
Sn0.97As0.01Te0.99,0.023
Au0.92In0.08,0.022
Sn0.97As0.008Te0.992,0.022
Pt1,0.02
Ir0.3Ru0.2Rh0.5,0.02
Sn0.97As0.009Te0.991,0.0195
Ag0.875Ga0.125,0.019
Ag0.885Sb0.115,0.019
Fe0.043Ru0.957,0.018
Ir0.7Os0.3,0.0167
Au0.93In0.07,0.0164
Mo0.7Nb0.3,0.016
W1,0.016
W1,0.0154
Al0.05Au0.95,0.0138
Sn0.995Te1,0.0138
Sn0.97As0.025Te0.975,0.0138
Mg0.93Pb0.07,0.013
Ag0.7Zn0.3,0.0125
Sn1Te1,0.012
Au0.94In0.06,0.0111
Mo3Re1,0.01
C1Nb0.4Ta0.6,0.01
Ag0.81In0.19,0.0074
Ag0.9Ga0.1,0.0065
Pt1,0.0019
Pt1,0.00138
Pt1,0.00104
Pt1,0.00062
Au0.978In0.022,0.0005
Li1,0.0004
Rh1,0.000325
Rh1,0.00021