formula,Tc
Ru1Sr2Gd0.6Dy0.4Cu2O8,58
Tl1Sr2Ca0.8Pr0.2Cu2O7,58
Y1Ba2Cu2.97Zn0.03O6.75,58
Dy1Ba2Cu2.8Fe0.2O6.93,58
La1.9Gd1.1Ca1Ba2.4Sr0.6Cu6.58In0.42O16.554,58
Eu0.8Pr0.2Ba2Cu3O6.97,57.9
Y1Ba1.9La0.1Cu3O6.8,57.9
Y0.9Ca0.1Ba1.5La0.5Cu3O7.19,57.9
Y1Ba2Cu3.96Co0.04O8,57.9
Y1Ba2Cu3O6.6,57.85
Y1Ba2Cu2.982Zn0.018O6.75,57.8
Y1Ba2Cu2.8Fe0.2O6.85,57.7
Gd0.8Pr0.2Ba2Cu3O7,57.7
Y1Ba2Cu3O6.829,57.7
Y1Ba2Cu3O6.516,57.7
La1.5Pr0.5Ca1Ba2Cu5O11.782,57.7
Y1Ba2Cu3.96Zn0.04O8,57.6
Y0.8Pr0.2Ba2Cu3O7.1,57.6
Nd1Ba1.7La0.3O6.77,57.5
Y0.9Ca0.1Ba2Cu2.9Co0.1O6.76,57.5
Y0.85Ca0.15Ba2Cu2.85Co0.15O6.78,57.5
Sm0.9Pr0.1Ba2Cu3O6.95,57.5
Y1La0.3Ba1.7Cu3O7,57.45
Y1Ba2Cu2.94Zn0.06O7,57.4
Y0.7Pr0.3Ba2Cu3O6.98,57.4
Y1Ba2Cu3O6.58,57.4
La1.25Ba1.65Ca0.1Cu3O7.15,57.3
Y1Ba2Cu3O6.57,57.2
Nd0.95Pr0.05Ba2Cu3O6.85,57.2
La1Ba1.5Sr0.5Cu3O6.948,57.1
La0.7Pr0.3Ba2Cu3O7,57.1
Ca0.1La1.15Ba1.75Cu3O7.148,57.1
Y1Ba2Cu2.844Fe0.156O7,57
Y1Ba2Cu2.9Zn0.1O6.94,57
Y1Ba2Cu2.88Fe0.12O7,57
La1Ba1Sr1Cu3O6.94,57
La1Ba1Cu2.94Co0.06O7,57
Cu0.5C0.5Ca3Cu2O6.6,57
Y0.7Pr0.3Ba2Cu3O6.96,57
Ca0.1La0.9Ba1.65La0.35Cu3O7.15,57
Y1Ba2Cu3.96Ni0.04O8,57
Ca0.4La1.25Ba1.35Cu3O7.055,57
Y1Ba2Cu3O6.65,57
Bi2Sr2Ca0.6Pr0.4Cu2O8.316,57
Y1Ba1.5La0.5Cu3O7.17,57
Y1Ba2Cu2.9Zn0.1O6.94,56.9
Y1Ba2Cu2.91Zn0.09O7,56.9
Y1Ba2Cu3O6.729,56.8
Y1Ba2Cu3.956Zn0.044O8,56.8
C0.54Sr2Ca0.6Y0.4Cu2.38O6.89,56.7
Bi2Sr2Ca1Cu2I0.4O8.242,56.7
Ba1.8Sr0.2Yb1Cu3O6.61,56.7
Y1Ba2Cu3O6.66,56.7
Y1Ba2Cu3O6.64,56.65
Sm1.2Ba1.8Cu3O7.01,56.5
Tl1Ba1Sr1Cu1O5,56.5
Y1Ba2Cu3O6.6,56.5
Bi1.8Ga0.2Sr1.8Ca1.2Cu2O8,56.5
Y0.9Ce0.1Ba2Cu4O8,56.5
Gd0.8Th0.2Fe1As1O1,56.5
Sm1Ba1.9Pr0.1Cu3O6.99,56.4
Y1Ba2Cu3O6.58,56.3
Bi2Sr2Ca1Cu2I0.61O8.21,56.3
Y1Ba2Cu3O6.65,56.3
Y1Ba2Cu3.96Zn0.04O8,56.25
Gd1Fe1As1H0.1O0.9,56.2
Y0.8Pr0.2Ba2Cu3O6.8,56.1
Y0.9Pr0.1Ba2Cu3O6.65,56.1
Nd1Ba2Cu3S1O5,56
Y1Ba1.66La0.34Cu3O7.073,56
Tl2Ba2Cu1O5.943,56
Y1Ba2Cu3O6.7,56
Y1Ba2Cu2.91Zn0.09O7,56
Y1Sr2Cu2.675Ti0.325O7.1,56
Y0.6Ca0.4Sr1.6Ba0.4Cu2Ga1O7,56
Sr2Tm1Cu3O7.28,56
Sr1.5Ba0.5Y1Cu2.8Ga0.2O7.14,56
Nd1.8Pr0.2Ba4Cu7O14.587,56
La0.75Dy0.25Ba1Ca1Cu3O7,56
Y1Ba2Cu3.96Zn0.04O8,56
Y1Ba2Cu2.91Zn0.09O6.95,56
Hg1Ba2Cu1O4.36,56
Y1Ba2Cu3O6.5,56
Y1Ba2Cu3O6.52,56
La1Ba1.5Ca0.5Cu3O7.16,56
Y1Ba2Cu2.982Zn0.018O6.78,56
La0.8Ca0.1Pr0.1Ba1.5Sr0.5Cu3O6.856,56
Fe1Sr2Y1Cu2O7.68,56
Ba2Ca3Cu4F2O8,56
Y1Ba2Cu2.91Zn0.09O7,55.87
Y1Ba2Cu3.96Zn0.04O8,55.8
Gd1Ba1.85Pr0.15Cu3O7.09,55.8
Er0.7Ca0.3Ba2Cu3O6.83,55.7
Y0.7Pr0.3Ba2Cu3O7,55.67
Y1Ba2Cu2.74Fe0.26O7,55.6
Y0.85Ca0.15Sr0.5Ba1.5Cu2.5B0.5O7,55.6
Y1Ba2Cu3O6.55,55.55
Bi2Sr2Ca1Cu2I0.86O8.242,55.5
Y1Ba2Cu3O6.54,55.5
Y0.8Ca0.2Ba2Cu2.8Co0.2O6.78,55.5
Y1Ba2Cu3O6.61,55.5
Y1Ba2Cu2.9Co0.1O6.89,55.3
Eu1Ba2Cu2.8Co0.2O6.98,55.3
Tl1Sr1.65Th0.35Ca1Cu2O7,55.3
Tl1Sr2Ca0.65Th0.35Cu2O7,55.3
Sm1Fe1As1H0.19O0.81,55.3
Y1Ba2Cu3.92Ni0.08O8,55.1
Y1Ba2Cu2.9Ni0.1O6.87,55
Y1Ba2Cu2.9Zn0.1O6.81,55
Er1Ba2Cu3O6.31,55
Er1Ba2Cu2.85Zn0.15O7,55
Y1Sr2Cu2.75Mo0.25O7.1,55
Pb0.5Ca1Sr2Y0.5Cu2O6.97,55
Bi2Sr2Ca0.55Y0.45Cu2I1O8,55
Y0.9Ce0.1Ba2Cu4O8,55
Y1Sr2Cu2.8Re0.2O7,55
Tl1Sr1.7Ca0.3Yb1Cu2O7,55
Tl1Sr1.5Ca0.5Yb1Cu2O7,55
Sr2Tm1Cu3O7.48,55
Ca1La1Ba1Cu2.85Zn0.045O7,55
Ba1.6Sr0.4Yb0.95Ca0.05Cu3O6.58,55
Tl0.5Bi0.5Sr4Cu2C1O10,55
La0.75Nd0.25Ba1Ca1Cu3O7,55
La1.82Ca1.18Cu2O6,55
La0.5Dy0.5Ba1Ca1Cu3O7,55
La3.1Y0.2Ca0.4Ba3.3Cu7O16.529,55
Y1Ba2Cu3O6.52,55
Y1Ba2Cu3O6.5,55
Y1Ba2Cu3F1.26O6,55
Y1Ba2Cu3F1.46O6,55
Yb0.65Pr0.35Ba1.7Sr0.3Cu3O6.95,55
La1.5Ba1.1Ca0.4Cu3O7.05,55
Y0.7Pr0.3Ba2Cu3O6.965,55
Y1Ba1.85Cu2.85Co0.15O6.94,55
Bi1.6Sr0.4Yb1Cu3O6.817,55
Y1Ba2Cu2.91Zn0.09O6.93,55
Y1Ba2Cu2.94Zn0.06O6.83,55
Y1Ba2Cu3O6.57,55
Ba2Ca3Cu4F2O8,55
Bi0.3Pb0.3La1.2Sr1.2Cu2O5.81,55
Sm1Fe1As1O0.85,55
Sm1Fe1As1O0.67,55
Sm1Fe1As1F0.6O0.6,55
Gd1Fe1As1H0.1O0.9,55
Sm1Fe1As1H0.25O0.75,55
Fe1Se1,55
Y0.9Zn0.1Ba2Cu3O7,54.9
Y1Ba2Cu3O6.54,54.9
Y0.74Ca0.16Sr1.6Ba0.5Cu2.78S0.22O7,54.9
Sm1Fe1As1O0.85,54.9
Y1Ba2Cu3O6.53,54.8
Y1Ba1.7La0.3Cu3O7,54.8
Bi1.8Pb0.2Sr2Ca1Cu1.98Fe0.02O8,54.8
La0.6Pr0.4Ba2Cu3O7,54.8
Y1Ba2Cu2.8Zn0.2O6.88,54.7
Sm1Ba2Cu3O6.85,54.7
Sm1Fe1As1H0.25O0.75,54.7
Y1Ba2Cu3O6.68,54.6
Sm1Fe1As1F0.1O0.9,54.6
Y1Ba2Cu2.9Ni0.1O6.85,54.5
Y0.9Ca0.1Ba2Cu3O6.5,54.5
Y1Ba1.9La0.1Cu3O6.7,54.5
Nd0.9Ca0.1Ba0.6La0.4Cu3O6.7,54.5
Bi1.7Pb0.3Sr2Ca0.8Y0.2Cu1.94Zn0.06O8,54.4
Y1Ba2Cu3O6.52,54.35
Er1Ba2Cu3O6.53,54.3
Y1Ba2Cu3.84Co0.16O8,54.3
C0.53Sr1.99Ca0.56Y0.45Cu2.39O6.94,54.2
Sm1Fe1As1H0.12O0.77,54.2
La1Ba1.25Sr0.75Cu3O6.996,54.1
Y1Ba2Cu3O6.55,54.1
Y1Ba1.5La0.5Cu3O7.17,54.1
Y2Ba4Cu7O14.81,54.1
Y1Ba2Cu3O6.5,54.1
Y1Ba2Cu2.88Fe0.12O7,54
Y1Ba2Cu2.841Co0.159O6.8,54
Y1Ba2Cu2.75Ni0.25O7,54
Y1Ba2Cu3O6.54,54
La1.7Sr0.3Ca1Cu2O6,54
Lu1Ba1Sr1Cu3O6.94,54
Bi1.6Pb0.4Sr6Cu3C2O16,54
Sr1.9Ba0.1Cu1F2O2,54
Nd1.1Ba1.5Ca0.4Cu3O6.864,54
La1.8Sr0.2Ca1Cu2O5.96,54
Y1Ba2Cu3O6.53,54
Er0.52Ca0.48Ba1.4Sr0.6Cu2.76Co0.24O6.77,54
Lu0.7Ca0.3Ba2Cu3O6.78,54
Y0.6Pr0.4Ba2Cu4O8,54
Lu0.6Pr0.4Ba2Cu3O7,54
Eu0.7Sr0.3Ba1.6Pr0.1Cu3O6.91,54
La1Ba1.5Sr0.5Cu3O6.902,54
La1.6Pr0.4Ca0.8Ba2Cu4.8O11.1064,54
Nd1Fe1As1O0.2,54
Nd1Fe1As1O0.6,54
Ca0.4Nd0.6Fe1As1F1,54
Sm1Fe1As1O0.85,54
Y0.8Ca0.2Sr1.6Ba0.4Cu2.7Ga0.3O7,53.9
Dy0.7Pr0.3Ba2Cu3O6.9,53.9
Eu0.7Pr0.3Ba2Cu3O7,53.8
Nd1Fe1As1O0.7,53.7
Y0.4Ca0.3Pr0.3Ba2Cu3O7.02,53.6
Hg0.2Cr0.8Sr2Cu1O4,53.6
Gd1Fe1As1O0.7,53.6
Sm1Fe1As1F0.3O0.7,53.56
Bi1.7Pb0.3Sr2Ca0.6Y0.4Cu1.94Zn0.06O8,53.5
Gd1Fe1As1O0.85,53.5
Gd0.93Ca0.07Ba1Sr1Cu3O6.8804,53.5
Sr0.5Sm0.5Fe1As1F1,53.5
Ba2Cu1O4,53.5
Fe1Sr2Y1Cu2O7.51,53.5
Y0.25Cd0.75Ba2Cu3O7,53.2
Y1La1.6Ba3.4Cu6O14.38,53.1
Y1Ba2Cu2.9Fe0.1O6.8,53.1
Gd0.8Pr0.2Ba2Cu3O6.95,53.1
Bi2Sr2Ca1Cu2I0.69O8.242,53.1
Y1Ba2Cu2.8Co0.2O6.83,53
Y1Ba2Cu2.8Co0.2O7.04,53
Tl2Ba2Cu1O5.963,53
Y1Ba2Cu2.745Fe0.255O7.08,53
La1.8Sr0.2Ca1Cu2O6,53
Y1Ba2Cu2.88Zn0.12O6.92,53
Y1Sr2Cu2.85Re0.15O7,53
Y1Sr2Cu2.65Ti0.35O7.1,53
Y0.7Ca0.3Ba2Cu2.55Co0.45O6.84,53
Y1Ba2Cu3.96Ni0.04O8,53
Bi2Sr2Ca1Cu2I1O8.242,53
Y1Ba2Cu3O6.5,53
Hg0.7Cr0.3Sr2Cu1O4.6,53
Ba1.6Sr0.4Yb0.6Ca0.4Cu3O6.25,53
Nd1Ba2Cu2.95Ga0.05O6.59,53
Y0.7Pr0.3Ba2Cu3O7,53
Y0.6Pr0.4Ba1Sr1Cu3O6.89,53
Hg1Ba2Cu1O4.08,53
Y1Ba2Cu2.84Fe0.16O6.959,53
Hg1Ba2Cu0.97Zn0.03O4.043,53
Tl0.5Pb0.5Sr2Ca1Cu2.95Co0.05O7,53
Nd1Fe1As1O0.6,53
Sm1Fe1As1O0.85,53
Nd1Fe1As1F0.175O0.825,53
Sm0.65Th0.35Fe1As1O1,53
Sm1Fe1As1F0.1O0.9,53
Nd1Fe1As1F0.1O0.9,53
Y0.85Pr0.15Ba2Cu3O6.65,52.9
Nd1Ba2Cu3O6.75,52.8
Y1Ba2Cu3O6.52,52.8
Ca0.4Ba1.15La1.45Cu3O7.23,52.8
Tl1Sr2Ca0.8Y0.2Cu2O7,52.75
Y1Ba2Cu2.95Fe0.05O6.73,52.7
Nd1.25Ba1.75Cu3O6.99,52.7
Y0.8Ca0.2Ba2Cu3O6.4,52.6
Y1Ba2Cu3.9Ni0.1O8,52.6
Y1La0.3Ba1.7Cu4O8,52.6
Y1Ba2Cu3O6.67,52.5
Y1Ba2Cu3O6.45,52.5
Cd1Tl0.7Ba1Cu1O4.5,52.5
Gd0.8Mo0.2Ba2Cu3O6.807,52.5
Tl1Sr2Ca0.75Th0.25Cu2O7,52.5
Y0.5Pr0.5Ba2Cu4O8,52.5
Fe0.5Ba1Sr1Y1Cu2.5O7.424,52.5
Sm1Fe1As1F0.2O0.8,52.5
Ca0.85Ce0.15Ba1La1Cu3O7.07,52.4
Sm1Fe1As1F0.2O0.8,52.4
Y1Ba2Cu2.5Ni0.5O7,52.3
Y1Ba2Cu3.96Zn0.04O8,52.2
Y0.9Pr0.1Ba2Cu3O6.75,52.2
Tb1Fe1As1O0.7,52.2
Sm1Fe1As1O0.7,52.1
La2.2Ba3.8Cu6O13.86,52
Y1Ba1.6La0.4Cu3O7.05,52
Tl1Ba1.2La0.8Cu1O5,52
Y1Ba1.6La0.4Cu3O7.06,52
Tl1Sr2Ca1Cu2O6.61,52
Sr1.5Ba0.5Y1Cu2.8Ti0.2O7.08,52
Lu0.8Ca0.2Ba2Cu3O6.81,52
Eu1.2Pr0.8Ba4Cu7O14.788,52
Tl0.5Bi0.5Sr4Cu2C1O10,52
La0.8Pr0.2Ba1Ca1Cu3O7,52
Eu1Ba2Cu2.9Ga0.1O6.74,52
Y0.6Pr0.4Ba1.2Sr0.8Cu3O6.89,52
Lu0.65Pr0.35Ba1.7Sr0.3Cu3O6.93,52
Y1Ba2Cu2.88Zn0.12O7,52
La1.3Ba1.5Ca0.2Cu3O6.94,52
Er1Ba2Cu2.88Zn0.12O6.92,52
C60,52
Nd1Fe1As1F0.18O0.82,52
Sm1Fe1As1O0.85,52
Tb0.8Th0.2Fe1As1O1,52
Sm1Fe1As1F0.2O0.8,52
Nd1Fe1As1F0.12O0.88,52
Fe1Sr2Er1Cu2O7.5,52
Nd1Fe1As1O0.85,51.9
Pb2Sr2Ho0.5Ca0.5Cu2.94Al0.06O8,51.8
Sm1Fe1As1F0.2O0.8,51.8
Sm1Fe1As1H0.34O0.64,51.8
Y0.8Pr0.2Ba2Cu3O6.65,51.7
La0.5Pr0.5Ba2Cu3O7,51.7
Tl1Sr1.75Th0.25Ca1Cu2O7,51.6
H1Pd1,51.6
La1.77Sr0.23Ca1Cu2O6.03,51.5
Y1Ba2Cu2.9Zn0.1O7,51.5
Y1Ba1Sr1Cu3O6.8,51.5
Sm1Fe1As1F0.15O0.85,51.5
Y1Ba2Cu3O6.47,51.4
Y1Ba1.8La0.2Cu3O6.85,51.4
Sm0.9Th0.1Fe1As1O1,51.4
Sm1Fe1As1H0.3O0.6,51.4
Y1Ba2Cu3O6.48,51.2
Dy1Fe1As1O0.7,51.2
Sm1Fe1As1F0.15O0.85,51.1
Y1Ba2Cu2.85Fe0.15O7,51
Y1Ba2Cu2.88Al0.12O7,51
Y1Ba2Cu2.72Ni0.28O7,51
Y1Sr2Cu2.75W0.25O7.1,51
Y1Sr2Cu2.7Fe0.3O7.1,51
La1.8Sr0.2Ca1Cu2O6.03,51
Y1Sr0.8Ba1.2Cu2.5B0.5O7,51
Y0.76Ca0.34Ba2Cu2.55Co0.45O6.95,51
Y0.76Ca0.24Ba2Cu2.55Co0.45O6.93,51
Y1Ba2Cu3O6.63,51
Nd1.2Ba1.6Ca0.2Cu3O6.929,51
Ba1.6Sr0.4Yb0.65Ca0.35Cu3O6.28,51
La2.5Y0.5Ca1Ba3Cu6.3Fe0.7O16.627,51
La1.4Ba1.5Ca0.1Cu3O6.982,51
Eu0.8Sr0.2Ba1.6Pr0.1Cu3O6.78,51
Ga1Sr2Tm0.6Ca0.4Cu2O7,51
Nd1Fe1As1O0.85,51
Dy1Fe1As1O0.85,51
Tb1Fe1As1F0.1O0.9,51
Nd1Fe1As1F0.1O0.9,51
Y1Ba2Cu2.7Fe0.3O7,50.8
Bi1.8Pb0.2Sr2Ca1Cu1.96Co0.04O8,50.7
Y1Ba2Cu2.76Co0.24O6.999,50.7
Ru1Sr2Gd1Cu2O8,50.7
Y1Ba2Cu3.92Co0.08O8,50.6
Bi2Sr2Ca2Cu2I0.86O8.21,50.6
Y1Ba1.9La0.1Cu3O6.6,50.6
Yb0.6Pr0.4Ba2Cu3O6.91,50.5
Sm1Fe1As1O0.85,50.5
Y1Ba2Cu3O6.56,50.4
Y1Ba2Cu3O6.62,50.4
Y1Ba2Cu3.92Fe0.08O8,50.4
Y1Ba2Cu2.88Zn0.12O7,50.4
Tm0.6Pr0.4Ba2Cu3O6.95,50.3
Y1Ba2Cu3O6.53,50.3
La1.25Ca0.2Ba1.55Cu3O7.082,50.2
Y1Ba2Cu3O6.5,50.1
Y1Ba2Cu3.96Zn0.06O8,50.1
La1.1Ba1.4Sr0.5Cu3O6.954,50.1
Sm1.27Ba1.73Cu3O7.05,50.1
Nd1Fe1As1F0.11O0.89,50.1
Sm1Fe1As1F0.12O0.88,50.1
Nd1Fe1As1F0.1O0.9,50.1
Y1Ba2Cu2.9Zn0.1O6.85,50.08
Nd0.8Ba0.2Fe1As1F0.4O0.6,50.03
Y1Ba2Cu3O6.5,50
Y1Ba2Cu3O6.66,50
Tl2Ba2Cu1O5.947,50
Tl2Ba2Cu1O6,50
Y2Ba4Cu7O14.38,50
La1.7Sr0.3Ca1Cu2O6,50
Y0.8Ca0.2Ba2Cu3O6.1,50
Pb0.5Ca1Sr2Y0.5Cu2O6.95,50
Sm1.27Ba1.73Cu3O7.05,50
Y0.9Ca0.1Ba2Cu2.9Zn0.1O6.81,50
Y0.6Ca0.4Sr1.7Ba0.3Cu2Ga1O7,50
La1.3Ba1.4Sr0.3Cu3O6.91,50
Tl0.8V0.2Sr4Cu2C1O10,50
Y1Ba2Cu3.8Co0.2O8,50
Y1Ba2Cu3.88Ni0.12O8,50
Nd1.2Ba1.8Cu3O6.954,50
Gd1Ba1.5Sr0.5Cu3O6.73,50
Hg1Ba2Cu1O6.932,50
Sr1.5Ba0.5Y1Cu2.8Ga0.2O7.1,50
Tm1.2Pr0.8Ba4Cu7O14.652,50
Ba1.6Sr0.4Yb0.65Ca0.35Cu3O6.04,50
Tl0.7Bi0.3Sr4Cu2C1O10,50
Y0.5Pr0.5Ba2Cu4O8,50
Cu0.5P0.5Sr2Ca1.7Y0.3Cu3O9.4,50
Nd0.8Pr0.2Ba2Cu3O6.81,50
Dy1Ba2Cu2.8Ga0.2O6.78,50
Hg1Ba2Cu1O4.09,50
Y1Ba2Cu3O6.54,50
Dy1Ba2Cu3O7,50
Y1Ba2Cu2.97Zn0.03O6.7,50
Hg1.4Tl0.6Ba2Y0.8Ca0.2Cu2O7.83,50
La1.5Ba1Ca0.5Cu3O6.981,50
Er1Ba2Cu2.82Zn0.18O6.91,50
Er1Ba2Cu2.85Zn0.12Fe0.03O6.94,50
Tm1Ba2Cu3O6.49,50
Eu0.6Sr0.4Ba1.6Pr0.1Cu3O7.06,50
Hg0.75Mo0.25Sr2Cu1O4,50
La0.85Ca0.05Pr0.1Ba1.5Sr0.5Cu3O6.865,50
La1.5Nd0.5Ca1Ba2Cu4.5Mo0.5O11.119,50
Fe1Sr2Y1Cu2O7.68,50
Tl0.5Pb0.5Sr2Ca1Cu2.95Ni0.05O7,50
Sr0.8Ba1.2Cu1O3.35,50
C60,50
Yb1Fe4Al8,50
Bi0.2Pb0.3La1.3Sr1.2Cu2O5.78,50
Nd1Fe1As1F0.18O0.82,50
Tb1Fe1As1F0.1O0.9,50
Sm1Fe1As1F0.2O0.8,50
Pr1Fe1As1F0.225O0.775,50
Ca0.4Pr0.6Fe1As1F1,50
Ca5P2O10,50
Sm1Fe1As1H0.22O0.78,50
Tl0.7Er0.3Sr2Ca0.8Cr0.2Cu2O7,50
Tl0.7La0.3Sr2Ca0.8Cr0.2Cu2O7,50
Nb1S2,5.99
Fe1Se0.8S0.2,5.99
La1.865Ba0.135Cu1O4,5.98
Hf0.16Ta0.84,5.98
La1Sn3,5.98
Er0.11Ho0.89Rh4B4,5.98
Ba1Bi3,5.975
B12Zr1,5.97
Nb78Ga18Mn4,5.97
Zr0.993Lu0.007B12,5.97
Mg1C1Ni2.985Fe0.015,5.96
Ag0.7Mo4Se5,5.96
Ag0.7Mo3Se4,5.96
Er0.11Ho0.89Rh4B4,5.96
La1Fe1As0.1P0.9O1,5.96
Sc4Dy1Ir4Si10,5.95
In0.75Sn0.25,5.95
Er0.16Ho0.84Rh4B4,5.95
Li1,5.95
Rh0.06Zr0.94,5.95
Rh0.07Zr0.93,5.95
Ca1Al1Si1,5.95
B12Zr1,5.94
Er0.005La0.995,5.94
La0.987Gd0.013Sn3,5.94
La1.87Ba0.13Cu1O4,5.94
Fe1Se0.7S0.3,5.94
Zr2Co0.9Ni0.1,5.94
Hf1Re6,5.94
Y0.74Gd0.26Ni2B2C1,5.935
Na0.1Pb0.9,5.93
Pb1Te1Yb1S1,5.93
Nb0.5Ta0.5,5.93
Ba0.7Rb0.3Ti2Sb2O1,5.93
La1Ru2.88Cu0.12Si2,5.93
Ho0.6Dy0.4Ni2B2C1,5.92
Zr2Co0.85Ni0.15,5.92
Ho0.65Dy0.35Ni2B2C1,5.91
Ho0.5Dy0.5Ni2B2C1,5.91
Ta2Pd0.97S5,5.91
Hf0.6Lu0.4P1.55S0.45,5.91
Zr1P1.25Se0.75,5.907
Gd1Nd0.85Ce0.15Cu1O4,5.9
Hg1Sm1Pb2,5.9
La1,5.9
Al3Os1,5.9
B5Nb1.8Zr0.2,5.9
Ga1Sb1,5.9
V0.26Zr0.74,5.9
Ho0.65Dy0.35Ni2B2C1,5.9
Ho0.5Dy0.5Ni2B2C1,5.9
Tm1Ni1.94Co0.12B2C1,5.9
Tb0.225Er0.775Ni2B2C1,5.9
Ge1Nb3,5.9
Cu1Mo6Se8,5.9
Cs0.005W1O3,5.9
Lu4.9Sc0.1Ir4Si10,5.9
Er0.775Tb0.225Ni2B2C1,5.9
Mo0.45Re0.55,5.9
Re2Zr1,5.9
Rh0.06Zr0.94,5.9
Rh0.065Zr0.935,5.9
Cu0.7Mo3Se4,5.9
La1Os2,5.9
Dy1Ga6,5.9
Ca3Co4Ge13,5.9
Nb5Si2.8B0.2,5.9
Pr1Fe0.85Co0.15As1O1,5.9
B6Y1,5.9
Ba7.9Eu0.1Al5Si41,5.9
Bi3Sr1,5.9
Zr0.675Lu0.325P1S1,5.9
Ce0.97La0.03Ru2,5.89
Mo0.33Re0.67,5.89
Zr1.85La0.15P1.25Se0.75,5.889
Mo6Se6Te2,5.88
Zr2Co0.85Cu0.15,5.88
La0.15Ce0.85Ru2,5.872
Bi1In2,5.87
Th0.9La0.2Ru2,5.87
Hf0.5Lu0.5P1.45S0.55,5.87
B1Mo2,5.86
Hf0.14Re0.86,5.86
Ho0.7Dy0.3Ni2B2C1,5.86
Ho0.4Dy0.6Ni2B2C1,5.86
V75Ge20Sb5,5.86
Ba0.85K0.15Ti2Sb2O1,5.86
Hg1Pb2.1,5.85
B1Mo2,5.85
Cu1La1,5.85
Ga1N1,5.85
Ho0.4Dy0.6Ni2B2C1,5.85
Mg0.4Al0.6B2,5.85
Mo0.15Nb0.85,5.85
B12Zr1,5.85
Lu2Fe3Si5,5.85
Ba8Si44Al2,5.85
Nb1S2,5.84
Tl1Mo3Te3,5.84
Ga1La3,5.84
Ce1Fe1As0.47P0.53F0.05O0.95,5.84
Mo6Se7.7S0.3,5.83
Ge1V3H0.033,5.83
Zr2Co0.8Ni0.2,5.83
Ce0.8Pr0.2Ru2,5.82
Ir1Mo3Nb1Pt1,5.82
B12Zr1,5.82
Sn1Ta3,5.82
Zr0.993Lu0.007B12,5.81
Zr0.75Lu0.25P1S1,5.81
Nd0.65La1.2Ce0.15Cu1O4,5.8
La1.83Sr0.17Cu0.96Ni0.04O4,5.8
Hg1Pb2,5.8
Lu5Ir4Si9.8Ge0.2,5.8
B2.1Nb1,5.8
Al2Ca1Si1,5.8
Ba1Bi3,5.8
Be5Ga1,5.8
Co0.002Mo0.815Re0.185,5.8
Mo3Se4,5.8
Pb0.6Tl0.4,5.8
Rh17S15,5.8
P1,5.8
Ru0.465V0.535,5.8
Hf0.14Re0.86,5.8
Rh0.005Zr1,5.8
Sb1Ti3,5.8
Ho1Ni2B2C1,5.8
Ho0.7Dy0.3Ni2B2C1,5.8
Y1Pt1.5Au0.6B2.4C1.2,5.8
Mo8P5,5.8
Be1,5.8
La1Mo6S8,5.8
Lu5Ir3.12Rh0.88Si10,5.8
Y2I0.4Br1.6C2,5.8
Y0.8La0.2B6,5.8
Ga1Ta4Se8,5.8
Mo0.33Re0.67,5.8
Ga1La3,5.8
Al1La3,5.8
Ge1H0.005V3,5.8
Mo1.94Hf0.06B1C1,5.8
La1Fe1P1F0.06O0.94,5.8
Mg9.3Ir19B16.7,5.8
Bi1Cu0.9S1O1,5.8
W5Si1B2,5.8
Mo5Si1B2,5.8
Ba1Fe1.92Co0.08As2,5.8
Sm1Fe0.825Co0.175As1O1,5.8
La1Fe1P1O1,5.8
Y3Os8B6,5.8
K2Cr3As3,5.8
Re24Ti5,5.8
Ta1Rh2B2,5.8
Mo1C1,5.8
S1Sn1,5.8
Y7Ru4In1Ge12,5.8
Ca1Ir2,5.8
Ag1Sn1Se1.8S0.2,5.79
Zr2Co0.95Ga0.05,5.79
Sr1Pt2.1Pd0.9P1,5.78
Zr0.5Lu0.5P1S1,5.78
Lu4.9Sc0.1Ir4Si10,5.77
Lu5Ir3.1Rh0.9Si10,5.77
Dy0.6Tm0.4Ni2B2C1,5.77
Pr0.8Eu0.2Pt4Ge12,5.77
Bi1In2,5.766
Nb0.8V0.2,5.76
Zr1P1.5Se0.5,5.76
Rh0.06Zr0.94,5.75
Tc0.3W0.7,5.75
Ti0.1V0.9,5.75
Ca3Co4Sn13,5.75
Pr0.95Ce0.05Pt4Ge12,5.75
Ba8Si43Al3,5.75
Ca1.5Sr1.5Ir4Sn13,5.75
K0.9La0.1Bi1O3,5.74
Ti1Re1O1,5.74
Mo0.96Zr0.04B2,5.74
La0.95Ce0.05Pt4Ge12,5.73
La2.9394Ce0.0606In1,5.72
Lu5Ir3.44Rh0.56Si10,5.72
Nb0.405Ta0.595,5.72
Ir2Th1,5.72
Zr2Co0.9Ga0.1,5.72
Cu20Sn80,5.71
Re1Ti1O5,5.71
Er0.11Ho0.89Rh4B4,5.71
Hf0.61Ta0.39,5.71
Ba0.6Rb0.4Ti2Sb2O1,5.71
Eu1.80375Gd0.04625Ce0.15Cu1O4,5.7
Ba0.2Mo1S2,5.7
Hg1Pb1.8,5.7
Hg1Sm0.5Pb2,5.7
B0.69Mg0.31,5.7
Al0.2B5Mo1.8,5.7
Be8Ga1,5.7
Be22Ga1,5.7
Bi1Ru1,5.7
Bi3Sr1,5.7
Ir2Sr1,5.7
Ru0.1Zr0.9,5.7
Ru0.5W0.5,5.7
Ta0.96Zr0.04,5.7
B6La1,5.7
Nb0.88V0.12,5.7
Y1Ni1.7Mn0.3B2C1,5.7
Mo0.38Re0.62,5.7
Lu5Ir3.4Rh0.6Si10,5.7
Mo6Se5Cl3,5.7
Os0.06Zr0.94,5.7
Bi1,5.7
Mg12Ir19B16,5.7
Nb1S2,5.7
Zr2Ru3Si4,5.7
Li1Fe0.986V0.014As1,5.7
Ba8Si42Al4,5.7
Ba1Bi3,5.69
Mo5.6Ru0.4Se8,5.69
Lu5Ir3.12Rh0.88Si10,5.68
Ca1Al1Si1,5.68
Hf0.5Lu0.5P1.55S0.45,5.68
Ru0.46V0.54,5.67
Sc0.01V0.99,5.67
La0.9Ca0.1Fe1P1O1,5.67
Zr0.985Lu0.015B12,5.67
La0.2Th0.8Pt4Ge12,5.67
Lu5Ir2.8Rh1.2Si10,5.66
Th1Ir1.8Os0.2,5.66
Os0.07Zr0.93,5.66
Mo0.62Os0.38,5.65
In0.75Pb0.25,5.65
Zr0.984Lu0.016B12,5.65
Ba0.67Pt3B2,5.65
Fe0.99Cu0.01Se0.88,5.64
Er0.82Tb0.18Ni2B2C1,5.63
La1Fe1P1O1,5.63
Zr1.5Y0.5P1.25Se0.75,5.63
Na1Pb3,5.62
La0.9Th0.1,5.62
Nb0.29Re0.71,5.62
Li0.1Cs1Ca2Nb3O10,5.62
Dy0.95Tb0.05Ni2B2C1,5.61
Hf1Re2,5.61
La0.9Ce0.1Pt4Ge12,5.61
Nd1.85Ce0.15Cu0.993Ni0.007O4,5.6
Nd0.7Pr0.3Ba2Cu3O7,5.6
Mg1C1Ni2.934Ru0.066,5.6
Sr0.8Mo1S2,5.6
Be13Ga1,5.6
Bi1In2,5.6
C0.78N0.22Th1,5.6
Cr0.1Ti0.3V0.6,5.6
Hf1Tc2,5.6
La0.99Lu0.01,5.6
Mg2Pb1,5.6
Mo0.72Pt0.28,5.6
Mo1S2Sr0.2,5.6
Nb0.29Re0.71,5.6
Nb0.84S0.16,5.6
Nb0.92Sn0.08,5.6
Os0.06Zr0.94,5.6
P1,5.6
C1Hf0.4Nb0.6,5.6
Gd1.2Mo6Se8,5.6
Ba0.67Pt3B2,5.6
Ca1Al0.8Ga0.2Si1,5.6
V3Ga0.5Sn0.5,5.6
Hf0.1Ta0.9,5.6
Mo0.35Re0.65,5.6
Mg2Nb1,5.6
Al1Gd0.001La3,5.6
Th3Os4Ge13,5.6
Lu2Fe3Si5,5.6
Mo1.86Ta0.14B1C1,5.6
Ca1Al1Si1,5.6
Ga0.05Nb1Se2,5.6
Zr1Ru1P0.6B0.4,5.6
Ti1N1,5.6
Sm1Fe0.9Ni0.1As1F0.12O0.88,5.6
Ba8Si40Al6,5.6
Ce0.93Th0.07Ru2,5.6
Sr0.06Mo1S2,5.6
Sr0.08Mo1S2,5.6
Bi3Sr1,5.6
Mo3P1,5.6
Fe1Se0.79S0.21,5.6
V2.79Mo0.21Si1,5.59
La0.99Lu0.01,5.59
Pr0.96Ce0.04Pt4Ge12,5.59
La0.06Th0.94Pb3,5.58
La2.94Ce0.06In1,5.58
Ti0.03V0.97,5.58
Nd0.2Sm0.8Bi1S2F0.3O0.7,5.58
Nd0.2Sm0.8F0.3Bi1S2O0.7,5.58
Ag0.92Sn1.08Se2,5.57
Ca1Al0.9Si1.1,5.57
Ti0.576V0.384Ru0.04,5.57
Ta0.2Zr0.8,5.56
Sr1Fe1.66Co0.34As2,5.56
Zr2Co0.85Ga0.15,5.56
Nd1Bi0.94Pb0.06S2F0.3O0.7,5.56
La1.935Ca0.065Cu1O4,5.55
Bi0.343In0.657,5.55
Pb3Th1,5.55
La3Ru1,5.55
Lu2Ir3Si5,5.55
Bi3Sr1,5.55
Nb0.4Ta0.6,5.54
Pb0.52Tl0.48,5.54
Ba0.84K0.16Fe2As2,5.54
Nb78Ga16Mn6,5.53
Hf1Os1P1,5.53
B2Nb1,5.53
Ba0.75Na0.25Ti2Sb2O1,5.53
H0.938Pd1,5.523
Lu5Ir3.8Co0.2Si10,5.52
Tm1Ni1.88Fe0.12B2C1,5.52
Pr0.93Ce0.07Pt4Ge12,5.52
Nd0.6Sm0.4F0.3Bi1S2O0.5,5.52
Li0.28Cs1Ca2Nb3O10,5.51
Eu0.0028La0.9972,5.51
Nd0.4Sm0.6Bi1S2F0.5O0.5,5.51
Li0.1K1Ca2Nb3O10,5.51
Li0.45Nb1O2,5.5
Nd1.85Ce0.15Cu0.993Ni0.007O4,5.5
La1.8Sr0.2Cu0.9676Zn0.0324O4,5.5
Sr2Ca12Cu24O41,5.5
Ru0.95Co0.05Sr2Gd1CuO8,5.5
Sb1Ti3,5.5
Al1Ge1,5.5
Al13Os4,5.5
B5Mo1.7V0.3,5.5
C3Ho0.4Th1.6,5.5
C0.2N0.8Nb0.8V0.2,5.5
Ge0.72Nb3.28,5.5
Ir0.287O0.14Ti0.573,5.5
K0.4Mo1S2,5.5
Ir0.1Zr0.9,5.5
La0.99Y0.01,5.5
N0.48Nb1,5.5
Nb1S2,5.5
Nb0.25Sn0.25V0.5,5.5
V2Nb1Sn1,5.5
C1Hf0.3Mo0.7,5.5
In3Sn1,5.5
Ir0.287O0.14Ti0.578,5.5
Nb1Sn1V2,5.5
V50Ti40Zr10,5.5
Cu3Mo6S8,5.5
B2Zr1,5.5
Y2I0.25Br1.75C2,5.5
H0.3Li1Nb1O2,5.5
H0.5Li1Nb1O2,5.5
Co1Zr2,5.5
P1,5.5
V0.65Ge0.15Al0.2,5.5
V0.65Ge0.25Al0.1,5.5
La0.99Yb0.01,5.5
Th1.6Ho0.4C3,5.5
Er5Os4Si15,5.5
Sr1Fe1.9Ni0.1As2,5.5
La1Fe1P1O1,5.5
Ge1,5.5
Pd0.5Bi2Te3,5.5
Ba0.9K0.1Fe2As2,5.5
Rb0.19W1O3,5.5
La1Ni1Bi1O1,5.5
Sm1Fe1As0.47P0.53H0.24O0.76,5.5
Th0.93Zr0.07B12,5.5
Mo3P1,5.5
Ta1Os1Si1,5.5
Nb1Te2,5.5
N1Ti1,5.49
La0.962Tm0.038Sn3,5.49
Cr0.6Re0.4,5.49
Cr34.9Ga25V40.1,5.48
Th1Rh0.85Si1.15,5.48
Sb1Ti3,5.47
Nb0.1Hf0.9N1,5.47
Li2Pd2.4Pt0.6B1,5.47
Co1Zr2,5.47
Zr2Co1,5.47
Zr0.96Lu0.04B12,5.47
Mg1C1Ni2.98Fe0.02,5.46
V75Ge20Sn5,5.46
H0.51Mo0.1Nb0.765Pd0.135,5.46
Mo6Se7.5S0.5,5.45
Zr33.3V39.3Nb27.4,5.45
Lu5Ir2Rh2Si10,5.45
Sr1Pt2As2,5.45
Bi2Te2Se1,5.45
Nd1Bi1S2F0.9O0.62,5.44
La0.2Sm0.8Bi1S2F0.5O0.5,5.44
Mo5.5Ru0.5Se8,5.43
La1Bi1S2F0.5O0.5,5.43
Li0.05Cs1Sr2Nb3O10,5.43
Li0.1Cs1Sr2Nb3O10,5.43
Li0.34K1Ca2Nb3O10,5.42
Ti0.01V0.99,5.42
Zr23V45.5Nb31.5,5.42
La0.2Sm0.8Bi1S2F0.5O0.5,5.42
La1Fe1P1O1,5.42
La1Ru2.919Ni0.081Si2,5.42
Ba1Fe1.958Rh0.042As2,5.41
Zr2Co0.8Cu0.2,5.41
C60Tb2.75,5.4
La1.89Ba0.11Cu1O4,5.4
La1.78Ba0.22Cu1O4,5.4
Li0.34Cs1Ca2Nb3O10,5.4
La0.8Th0.2Ni1C2,5.4
Ti45Nb40Si12B3,5.4
C3Ho0.2Th1.8,5.4
C3Sc1.4Th0.6,5.4
La0.95Y0.05,5.4
Mo6.3Pb1S6Se2,5.4
B1C1Mo2,5.4
Ir1Ti3,5.4
C60Yb2.75,5.4
In0.71V6S8,5.4
Tm1Rh4B4,5.4
Pb1Mo6S6Se2,5.4
Se1,5.4
V0.55Ge0.1Al0.35,5.4
Ce1Ru2,5.4
Nb0.4Ta0.6,5.4
Th1.8Ho0.2C3,5.4
Th0.6Sc1.4C3,5.4
Nd1Rh6B6,5.4
La2Sn5,5.4
Rh17S15,5.4
Sr1Pt4Ge12,5.4
Nb1S2,5.4
C1,5.4
Zr1Ru1P0.8B0.2,5.4
Ca2Al2.39Si4.61,5.4
La1Fe1P1F0.1O0.9,5.4
Ta2Pd0.92S5,5.4
Sr2.5Sn1O1,5.4
Nb0.9Ni0.1B2,5.4
Bi2Pd1,5.4
Li0.34K1Ca2Nb3O10,5.39
Bi1Te1I1,5.39
Hf0.08Ta0.92,5.38
Os0.05Zr0.95,5.38
Nd0.4Sm0.6Bi1S2F0.3O0.7,5.38
S1.005Sc1,5.37
Nd1Bi0.97Pb0.03S2F0.3O0.7,5.37
Nd1Rh4B4,5.36
Rh17S15,5.36
Ge1,5.35
Ce0.85La0.15Ru2,5.35
Ba1Pt4Ge12,5.35
Bi2Pd1,5.35
Nd1Bi0.96Pb0.04S2F0.3O0.7,5.35
Zr0.4Y0.6P1S1,5.35
Zr33.3V56.7Nb9.9,5.34
Zr1P1.1Se0.9,5.34
Zr0.5Y0.5P1S1,5.34
Ba0.9Rb0.1Ti2Sb2O1,5.33
Mo0.5Pt0.05Re0.45,5.32
Nb0.85W0.15,5.32
Ti0.564V0.376Fe0.06,5.32
V1,5.32
Sb0.25Ti0.75,5.32
Nd0.6Sm0.4Bi1S2F0.5O0.5,5.32
Bi3S3O2,5.32
Li0.46Cs1Ca2Nb3O10,5.31
Mo3P1,5.31
Nb0.37Ta0.63,5.31
Er0.01La0.99,5.31
Nd1Rh4B4,5.31
Hf1P1.5S0.5,5.31
Ba4Sr4Si46,5.3
Nb55Mo25Si20,5.3
Ag0.15Bi0.85,5.3
Er0.01La0.99,5.3
Ga0.1Ge0.9,5.3
Ge0.22Nb1,5.3
La0.99Pr0.01,5.3
La3Te4,5.3
Mo0.15Nb0.85,5.3
Nb0.1Ti0.4V0.5,5.3
Tc0.44Th0.56,5.3
Ti0.75V0.25,5.3
Sn1,5.3
B1C1Mo2,5.3
Bi0.15In0.85,5.3
Ga1V1.95,5.3
Nb49.8Zr24.45Mo25.75,5.3
Ba1Si2,5.3
Nd1Rh4B4,5.3
V1,5.3
Al13Os4,5.3
Mo0.75Pt0.15Re0.1,5.3
Sb1Ti3,5.3
La1.14Nb2Se5.14,5.3
Ba1Fe1.838Co0.094Cu0.068As2,5.3
Yb1Bi1S2F0.5O0.5,5.3
Ba0.85Na0.15Fe2As2,5.3
La1Ir1P1,5.3
La2Sb1,5.3
Nd0.8Sm0.2F0.3Bi1S2O0.5,5.3
Ba1Pt4Ge12,5.3
Ba1Pt3.5Au0.5Ge12,5.3
Bi2Pd1,5.3
Bi1Te1I1,5.3
Li0.46Cs1Ca2Nb3O10,5.29
Zr2Co0.8Ga0.2,5.29
Ba2Ti2Fe1.9Cr0.1As4O1,5.29
Ag0.95Sn1.05Se2,5.28
La0.9974Tb0.0026,5.28
Ta0.17Zr0.83,5.28
Pr0.7Eu0.3Pt4Ge12,5.28
Bi1.5Sb0.5Te2Se1,5.28
Nb1Re3,5.27
Ce0.005La0.995,5.27
B2.03Nb1,5.26
Y1Pd2Sn1,5.26
Lu0.55Er0.45Ru1B2,5.26
Ce0.91La0.09Ru2,5.25
Mo0.202Zr0.798,5.25
La2.706Pr0.294Tl1,5.25
Fe1.13Se0.1Te0.85,5.25
Nd1Bi1S2F0.4O0.6,5.25
Nd1Bi1S2F0.3O0.7,5.25
La1Fe1P1F0.1O0.9,5.25
Pb1Te1,5.24
V1,5.24
Nd1Bi1S2F0.7O0.63,5.24
La1Bi1Se1S1F0.5,5.24
La0.99Pr0.01,5.23
Bi3.9Co0.1S3O4,5.23
Ba0.85Na0.15Ti2Sb2O1,5.22
Li0.3Cs1Sr2Nb3O10,5.22
Be22Tc1,5.21
Ca1Al1.2Si0.8,5.21
Ag0.95Sn1.05Se2,5.21
Nd0.6Sm0.4F0.3Bi1S2O0.7,5.21
Li0.2Cs1Sr2Nb3O10,5.21
La1.85Sr0.15Cu0.985Fe0.015O4,5.2
Na2Rb0.75Cs0.25C60,5.2
Y0.5Pr0.5Ba2Cu3O6.53,5.2
Eu1.84075Y0.00925Ce0.15Cu1O4,5.2
Ba0.47K0.53Bi0.985Pr0.015O3,5.2
Y3.25Dy1.75Os4Ge10,5.2
Mo2N1,5.2
Ba6Ca2Si46,5.2
Si1,5.2
Be8Nb5Zr2,5.2
C3Ho0.6Th1.4,5.2
Mo1Os2,5.2
Ru0.58W0.42,5.2