formula,Tc
Y1Ba2.01Cu2.81Ni0.19O6.7,65
La2Ba4Cu6O13.8,65
Y1Ba2Cu2.85Co0.15O7.03,65
Y1Ba2Cu2.925Zn0.075O6.94,65
Pb2.04Sr2.07Y0.61Ca0.38Cu3O8,65
Pb2Sr2Y0.5Ca0.5Cu3O8.6,65
Bi2Sr2Ca1Cu2O8.2,65
Er1Ba2Cu2.82Ni0.18O7,65
Bi1.4Pb0.6Sr2Ca0.4Nd0.6Cu2O8.24,65
Pb2Sr2Y0.64Ca0.36Cu3O8,65
Y0.95Ca0.05Ba2Cu2.95Zn0.05O6.89,65
Nd1.1Ba1.7Ca0.2Cu3O6.894,65
Nd1Ba1.6Ca0.4Cu3O6.828,65
Nd1.2Ba1.4Sr0.4Cu3O6.731,65
Cu0.8Mo0.2Sr2Y1Cu2O7.3,65
Lu0.8Ca0.2Ba2Cu3O6.54,65
La0.25Sm0.75Ba1Ca1Cu3O7,65
Cu5.5Sr2Ca4Cr0.5O13.35,65
Y1Ba2Cu3.88Fe0.12O8,65
Tl1Sr2Ca0.6Gd0.4Cu2O7,65
Y1Ba2Cu2.94Zn0.06O6.95,65
Er1Ba2Cu2.88Zn0.03Fe0.09O6.95,65
Eu0.8Pr0.2Ba2Cu3O6.7,65
La2.1Gd0.9Ca1Ba2.6Sr0.4Cu6.72In0.28O16.54,65
Ru0.8Sr2Y1Cu2.2O8.1,65
Tl0.5Pb0.5Sr2Ca1Cu2.98Co0.02O7,65
Fe1Se1,65
Tl2Ba2Cu1O6.16,64.9
Y1Ba2Cu2.94Zn0.06O7,64.9
Y1Ba2Cu2.61Ga0.39O7,64.8
Ca0.95Ce0.05Ba1La1Cu3O6.91,64.8
Er0.8Ca0.05Hf0.15Ba2Cu3O6.706,64.8
Y1Ba2Cu3.96Fe0.04O8,64.75
Y1Ba2Cu3O6.89,64.7
Y1Ba2Cu3O6.69,64.7
Y1Ba2Cu2.94Ni0.06O6.78,64.6
Y1Ba2Cu3.975Fe0.025O8,64.6
Y1Ba2Cu3.96Fe0.04O8,64.6
Bi2Sr2Ca1Cu2I0.2O8.242,64.6
Y1Ba2Cu3O6.72,64.6
Y1Ba2Cu3O6.66,64.5
Tm1Ba2Cu3O6.72,64.5
Gd0.7Pr0.2Ca0.1Ba2Cu3O7,64.4
Y0.8Pr0.2Ba2Cu3O8.04,64.4
Yb0.7Ca0.3Ba1.6Sr0.4Cu3O6.43,64.3
Yb1Ba2Cu2.943Zn0.057O6.9,64.3
Y1Ba2Cu3O6.66,64.2
Bi4Sr3Ca1Y2Cu4O16,64.1
Tm0.7Pr0.3Ba2Cu3O6.95,64.1
Y1La1.4Ba3.6Cu6O14.2,64
Y1Ba2Cu2.89Co0.11O7,64
Bi2Sr2Ca0.6Y0.4Cu2O8.29,64
Y1Ba2Cu4Li0.062O8,64
Y0.8Ca0.2Ba2Cu2.8Ni0.2O6.77,64
Y0.8Ca0.2Sr1Ba1Cu2.7Ga0.3O7,64
Sr1.4Ba0.6Cu1F2O2,64
Y1Ba2Cu3.8Fe0.2O8,64
Nd1Ba1Sr1Cu3O6.92,64
Ca1Ba1La1Cu3O6.97,64
Er0.94Ca0.06Ba2Cu2.82Co0.18O6.76,64
Er0.94Ca0.04Ba2Cu2.82Co0.18O6.76,64
Er0.76Ca0.24Ba1.4Sr0.6Cu2.76Co0.24O6.84,64
Y0.95Ca0.05Ba2Cu2.95Co0.05O6.75,64
La1.7Gd0.3Ba2Ca0.6Cu4.6O10.9,64
Y1Ba1.9La0.1Cu3O8,64
Y1Sr2Cu3O7.2,64
Y1Ba2Cu2.88Zn0.12O6.95,64
Sr2Y1Ru0.5Cu0.5O6,64
Y1Ba2Cu2.75Ni0.25O7,63.9
Y1Ba2Cu3O6.7,63.9
Y1Ba2Cu2.9Fe0.1O6.85,63.8
Y1Ba2Cu3.98Zn0.02O8,63.8
Y1Ba1Sr1Cu2.85Sn0.15O7.06,63.8
Y1Ba2Cu3.92Co0.08O8,63.75
Y1Ba2Cu3.96Ni0.04O8,63.7
Y1Ba1Sr1Cu2.85Sn0.15O7.062,63.7
Y1Ba2Cu3O6.73,63.7
Y1Ba2Cu2.925Zn0.075O6.85,63.6
Pb2Sr2Ho0.5Ca0.5Cu2.982Al0.018O8,63.6
Hg0.92Ba2.05Cu1.03O4.103,63.6
Y1Ba2Cu2.8Ni0.2O7,63.5
Pb0.5Cd0.5Sr2Y0.5Ca0.5Cu2O7,63.5
Ca0.4Ba1.25La1.35Cu3O7.16,63.5
Y1Ba2Cu3.939Ni0.061O8,63.5
Eu0.8Pr0.2Ba2Cu4O8,63.5
Hg0.5Fe0.5Sr2Y0.2Ca0.8Cu2O6.63,63.5
Bi1.7Pb0.3Sr2Ca0.6Y0.4Cu2O8,63.5
Y0.7Pr0.3Ba2Cu4O8,63.5
Tl0.5Pb0.5Sr2Ca1Cu2.98Ni0.02O7,63.5
Y1Ba2Cu3O6.66,63.32
Y1Ba2Cu2.4Ga0.6O7,63.31
Y0.8Pr0.2Ba2Cu3O7.2,63.3
Gd1Ba1.9Pr0.1Cu3O7.03,63.3
Bi2Sr2Ca1Cu2I0.43O8.21,63.1
Y1Ba2Cu3.98Ni0.02O8,63.1
Y1Ba2Cu2.697Mn0.303O6.9,63
Y1Ba2Cu2.05Al0.95O6.7,63
Y1Sr2Cu2.8Re0.2O7.2,63
Ga1Sr2Ca3Cu4O11.5,63
Y1Ba2Cu3O6.7,63
Al1Sr2Ca2Cu3O9.3,63
Y1Ba2Cu3O6.68,63
Eu1.6Pr0.4Ba4Cu7O14.761,63
Tl0.5Pb0.5Sr4Cu2C7.75O23.25,63
La1Ba1Ca1Cu3O7,63
Y1Ba2Cu3O6.76,63
Eu0.8Pr0.2Ba2Cu3O7,63
Y1Ba2Cu3.964Ni0.036O8,63
Y0.6Pr0.4Ba2Cu4O7.95,63
Nd1Ba2Cu3O6.78,63
Y1Ba2Cu3.976Zn0.024O8,63
Y1Ba2Cu3.972Zn0.028O8,63
Yb0.7Pr0.3Ba1.7Sr0.3Cu3O6.93,63
Dy1Ba2Cu2.8Ni0.2O6.83,63
Y0.8Ce0.1Ca0.1Ba2Cu4O8,63
Y1Ba1.75Cu2.75Co0.25O7.06,63
Er1Ba2Cu2.91Zn0.06Fe0.03O6.93,63
La0.7Ca0.2Pr0.1Ba1.5Sr0.5Cu3O6.809,63
La1.25Ca0.25Ba1.5Cu3O7.087,62.9
Y0.8Pr0.2Ba2Cu3O7.5,62.9
Y1Ba2Cu3.96Mn0.04O8,62.8
Y0.8Pr0.2Ba2Cu3O6.91,62.7
Bi2Sr2Ca0.6Y0.4Cu2O8,62.7
Y1Ba1.7La0.3Cu4O7.8,62.7
Bi1.4Pb0.6Sr2Ga2Cu3O7,62.7
Y0.8Pr0.2Ba2Cu3O7.3,62.6
Y0.8Ca0.2Ba2Cu3O6.51,62.6
Y1Ba2Cu3O6.66,62.6
Y0.7Pr0.3Ba2Cu3O6.95,62.5
Y1Ba2Cu3.96Co0.04O8,62.5
Y1Ba2Cu3O6.7,62.5
Y1Sr2Cu3O7.5,62.5
Y1Ba2Cu3.96Ni0.04O8,62.4
Hg0.9Cr0.1Sr2Cu1O4,62.3
Y1Ba2Cu3O6.64,62.25
Y1Ba2Cu3O6.65,62.2
Yb0.9Ca0.1Ba1.6Sr0.4Cu3O6.89,62.1
Bi1.7Pb0.3Sr2Ca0.65Y0.35Cu1.94Zn0.06O8,62.1
Y1Ba2Cu3O6.75,62.1
Y0.99Ba1.99Cu2.847Li0.153O6.4,62
Y1Ba2.01Cu2.806Cr0.194O7.3,62
Y1Ba2Cu3O6.72,62
Y1Ba2Cu3O6.62,62
Tl2Ba2Cu1O6.03,62
Pb0.5Sr2Ca0.5Sm0.5Cu2.5O7,62
Pb0.5Ca1Sr2Y0.5Cu2O7,62
Sr2Ho1Cu3O,62
Y0.75Ca0.25Ba2Cu2.75Ni0.25O6.77,62
Sr1.5Ba0.5Cu1F2O2,62
Sr2Y1Cu3O7.95,62
Sr2Y1Cu3O7.45,62
Sr2Tm1Cu3O7.65,62
Sr2Tm1Cu3O7.2,62
Sr2Tm1Cu3O7.48,62
Pb2Sr2Y0.5Ca0.5Cu3O8.1882,62
Y1Ba2Cu3O6.63,62
Tl1Sr2Ca0.4Tb0.6Cu2O7,62
Y1Ba2Cu2.94Ni0.06O7,62
Y1Ba2Cu2.4Fe0.6O7.453,62
Dy1Ba2Cu2.94Zn0.06O6.9,62
La1.5Ba1.1Ca0.4Cu3O7.082,62
Y1Ba2Cu3O6.73,62
Y1Ba2Cu2.988Zn0.012O6.75,62
La0.75Ca0.15Pr0.1Ba1.5Sr0.5Cu3O6.845,62
Y0.8Pr0.2Ba2Cu4O8,62
La1Fe1P1F0.1O0.9,62
Y0.8Ca0.2Ba2Cu3O6.5,61.9
Y1La0.2Ba1.8Cu3O7.16,61.7
Y1Ba2Cu3O6.67,61.5
Sr2Y1Ru0.5Cu0.5O6,61.5
Y0.9Pr0.1Ba2Cu3O6.85,61.5
Y1Ba1.7La0.3Cu3O7.059,61.4
Y1Ba2Cu2.97Zn0.03O6.76,61.4
Y1Ba1.8La0.2Cu3O6.9,61.4
Y1Ba2Cu3O6.61,61.38
Y1Ba2Cu3O6.52,61.34
Er1Ba2Cu3O6.64,61.3
Y1Ba2Cu3O6.61,61.3
Y1Ba2Cu3O6.61,61.25
Y1Ba2Cu3O6.59,61.2
Er0.7Pr0.3Ba2Cu3O7,61.1
Y1Ba2Cu3O6.63,61.1
Y1Ba2Cu3O6.75,61.1
Bi2Sr2Ca0.7Pr0.3Cu2O8,61
Y0.7Pr0.3Ba2Cu4O8,61
Tl1Ba2Sr2Cu2C1O10,61
Y1Ba1.9La0.1Cu4O8,61
Y1Ba1.87La0.13Cu4O8,61
Y1Ba1.7La0.3Cu3O7.02,61
Sr1.5Ba0.5Y1Cu2.8Ga0.2O7.2,61
Ba1.6Sr0.4Yb0.85Ca0.15Cu3O6.6,61
Ba1.6Sr0.4Yb0.65Ca0.35Cu2O6.4,61
Tl1Sr2Ba2Cu2C0.9N0.1O10,61
Tl1Sr2Ba2Cu2C0.8N0.2O10,61
Y0.75Ca0.25Ba2Cu2.75Co0.25O6.8,61
Hg1Ba2Cu1O4.01,61
Y1Ba2Cu3.84Fe0.16O8,61
Ru1Sr2Gd0.9Ca0.1Cu2O8,61
Lu0.7Pr0.3Ba1.7Sr0.3Cu3O6.89,61
Hg1Ba2Cu1O4,61
Y0.8Ca0.2Ba2Cu3O6.49,61
Tl0.7Gd0.3Sr2Ca0.8Cr0.2Cu2O7,61
Y1Ba2Cu3O6.62,60.9
Y1Ba2Cu3O6.72,60.8
Y1Ba2Cu2.94Zn0.06O6.84,60.8
Bi2Sr2Ca0.7Pr0.3Cu2O8.299,60.8
Bi1.7Pb0.3Sr2Ca0.75Y0.25Cu1.94Zn0.06O8,60.6
Y0.7Pr0.3Ba2Cu3O6.942,60.6
Y1Ba2Cu3O6.67,60.6
Ca0.9Ce0.1Ba1La1Cu3O7.02,60.5
Bi2Sr2Ca0.9Pr0.1Cu2O8,60.5
Y1Ba2Cu3.92Fe0.08O8,60.5
Y0.6Pr0.4Ba1Sr1Cu3O6.9,60.5
Y1Ba2Cu3O6.666,60.5
Nd1Ba2Cu3O6.23,60.5
Bi2.2Sr1.72La0.08Ca1Cu2O8,60.5
Y1Ba2Cu2.7Ni0.3O6.97,60.4
C0.57Sr2Ca0.7Y0.3Cu2.33O6.78,60.3
Y1Ba1.8La0.2Cu4O7.9,60.1
Y1Ba2Cu2.94Fe0.06O7,60
Y2La0.6Ba3.4Cu6O14.02,60
Y1Ba2Cu2.994Zn0.006O6.63,60
Y1Ba2Cu3O6.7,60
Y2Ba4Cu7O14.68,60
Y1Ba2Cu2.91Fe0.09O6.83,60
Y1Ba1.7La0.3Cu3O7.1,60
Pb0.5Sr2Ca0.5Nd0.5Cu2.5O7,60
Pb0.5Sr2Ca0.5Eu0.5Cu2.5O7,60
Pb0.5Sr2Ca0.5Gd0.5Cu2.5O7,60
Y2Ba4Cu7O14.53,60
C0.55Sr2.03Ca0.62Y0.35Cu2.35O6.79,60
Sr1.6Ba0.4Cu1F2O2,60
Tl1.2Sr2Ca0.8Cu2O6.862,60
Y0.9Ca0.1Ba1.5La0.5Cu3O7.13,60
La1.8Sr0.2Ca1Cu2O5.98,60
Hg1Ba2Cu1O4.13,60
Y1Ba2Cu3O6.63,60
Ca1La1Ba1Cu2.97Zn0.03O7,60
Tm1.4Pr0.6Ba4Cu7O14.667,60
Ba1.6Sr0.4Yb1Cu3O6.75,60
Tl0.5Pb0.5Sr4Cu2C7O21,60
Y0.8Pr0.2Ba2Cu4O8,60
Bi1.6Pb0.4Sr2Cu3Ca2O10.08,60
Y1Ba2Cu3O6.74,60
La1Ba0.8Ca1.2Cu3O7.11,60
La1.9Yb0.3Ba1.9Ca0.6Cu5O11.797,60
Y0.6Pr0.4Ba2Cu4O8,60
Tl1Sr2Ca0.4Gd0.6Cu2O7,60
Ca0.4Ba1.35La1.25Cu3O7.05,60
Y1Ba2Cu2.3Fe0.7O7.484,60
La1.2Ba1.5Ca0.3Cu3O6.93,60
Pr1Ba2Cu3O6.6,60
Y1Ba2Cu3O6.6,60
Hg1Ba2Cu1O4.1,60
Y1Ba2Cu2.95Zn0.05O6.8,60
Y1Ba2Cu2.91Zn0.09O6.68,60
Fe0.5Ba1Sr1Y1Cu2.5O7.35,60
Fe0.5Ba2Eu1Cu2.5O7.51,60
Fe0.5Ba2Tm1Cu2.5O7.43,60
Hg0.4Pr1.1Sr2Ca0.5Cu2O6.9,60
H2S1,60
Fe1Se1,60
Fe1Se0.99,6.99
Pb0.93Tl0.075,6.98
Pb1Tl0.075,6.98
Nd1Fe1As0.2P0.8F0.1O0.9,6.98
Mg1C0.885B0.04Ni3,6.97
Sb2Te3,6.97
Ca3Ir4Sn13,6.97
Sc4.5Dy0.5Ir4Si10,6.95
Cr0.071Nb0.929,6.95
Nb1Se2,6.95
La1Mo6S8,6.95
In0.2Pb0.8,6.95
Nb0.9V0.1,6.95
Au2Pb1,6.95
Ti0.6V0.4,6.95
Li2Pd3B1,6.95
Ba1Pt3Au1Ge12,6.95
Sc0.4V0.6,6.94
Lu0.65Er0.35Ru1B2,6.94
Mg1C1Ni2.995Ru0.005,6.93
Mg1C1Ni2.999Fe0.001,6.93
La1Fe1P1F0.05O0.95,6.93
Bi1Te1Cl1,6.93
Cd0.1Pd0.9,6.92
La2.9745Gd0.0255In1,6.92
Mg1C1Ni2.995Ru0.005,6.91
Li2Pd2.4Ni0.6B1,6.91
Zr0.5Lu0.5P1Se1,6.91
Y4Dy1Os4Ge10,6.9
Hg1Sm0.5In0.5Pb2,6.9
Mg1C1.6Ni3,6.9
Mg1C1Ni3,6.9
Bi0.25Pb0.75,6.9
Ge1V3,6.9
Hf0.2Ta0.8,6.9
In0.5Sn0.5,6.9
Mo0.39Ru0.61,6.9
V3Ga0.793Sb0.207,6.9
V3Ga0.78Sn0.22,6.9
V50Ti45Mo5,6.9
V50Ti49Mo1,6.9
Nb2Se2,6.9
La5B2C6,6.9
Mo1.965Zr0.035B1C1,6.9
Nb1Se2,6.9
Mg1.2C1.52B0.08Ni3,6.9
Ca3Ir4Sn13,6.9
K0.4Mo1S2,6.9
Rb0.3Mo1S2,6.9
Cs0.3Mo1S2,6.9
La1Ru3Si2,6.89
Mg1C0.814B0.111Ni3,6.88
Pb0.89Tl0.11,6.88
Pb1Tl0.12,6.88
Mg1C1Ni2.7Fe0.3,6.88
Er0.9Gd0.1Rh4B4,6.88
Li2Pd3B1,6.87
Er0.91Gd0.09Rh4B4,6.87
Ti0.106V0.894,6.86
Pr0.8Sr0.2Fe0.9Co0.1As1O1,6.86
Ba0.1K0.9Fe2As2,6.86
Bi2Se3,6.86
Ce1Bi1S2F0.9O0.1,6.855
Hf0.4Ta0.6,6.85
Ba1Fe1.924Co0.076As2,6.85
Mg1C1Ni3,6.84
Nb0.63Ta0.37,6.84
Sc0.6V0.4,6.84
Ba1Fe1.58Ru0.42As2,6.83
Mo1.8W0.2B1C1,6.82
Si1,6.8
C3Er0.1Th1.9,6.8
Cs0.3Mo1S2,6.8
Cu0.1Sn0.9,6.8
In0.1Pb0.9,6.8
Ir0.2Ru0.05Zr0.75,6.8
Nb0.64Ta0.36,6.8
Re0.92V0.08,6.8
Re0.67Zr0.33,6.8
Re2Zr1,6.8
Nb3Sn0.56Ge0.44,6.8
Nb3Sn0.3Sb0.7,6.8
Ir1Mo3,6.8
Nb25Ti65Mo10,6.8
Y1Ni1.8Co0.2B2C1,6.8
La1Mo6S8,6.8
Mg1C1Ni2.97Cu0.03,6.8
La0.92Tm0.08Ru3Si2,6.8
B6Y1,6.8
Y0.9La0.1B6,6.8
Nb0.7Ta0.3,6.8
Mg1C1Ni3,6.8
Th1.9Er0.1C3,6.8
Th1.6Sc0.4C3,6.8
La0.95Ce0.05Ru4P12,6.8
Ba4C60,6.8
Ga0.1Fe0.9Se0.85,6.8
Ga0.25Fe0.75Se0.85,6.8
Ca3Ir4Sn13,6.8
Nb4Fe1Si1,6.8
Ca1Ge3,6.8
Fe1Te0.88S0.12,6.8
Ba8Al5Si41,6.8
Re6Zr1,6.8
Ag0.9Sn1.1Se1.8S0.2,6.79
Ti0.588V0.392Fe0.02,6.79
Bi0.85Sb0.15,6.79
Re0.75Ta0.25,6.78
Re3Ta1,6.78
Lu1Si3,6.78
Zr1.5Lu0.5P1.25Se0.75,6.778
La0.4Th0.6Pt4Ge12,6.77
Mg1C0.853B0.072Ni3,6.76
V75Si5Ge20,6.76
Sc0.3V0.7,6.76
Er1Rh2Ir2B4,6.76
Hg0.15Pb0.85,6.75
Nb1.02Se2,6.75
Re0.35W0.65,6.75
Lu2Ir3Si4.95Ge0.05,6.75
Nb0.25Re0.75,6.75
Re6Zr1,6.75
Re0.15Mo0.85,6.74
Pb0.85Tl0.15,6.73
Pb1Tl0.17,6.73
Ho1Ni1.995Co0.01B2C1,6.72
Mo0.1Nb0.9,6.72
Mg1C1Ni2.99Ru0.01,6.72
Ag0.76Sn1.24Se2,6.72
La1Fe1P1O1,6.72
Re6Zr1,6.72
La0.9Sr0.1Fe1As0.8P0.3O1,6.72
Mg1C1Ni2.99Ru0.01,6.71
Ti0.5V0.5,6.71
Si1,6.7
Ba4C60,6.7
Be3Ga1,6.7
Ge1V3,6.7
Ir0.26Mo0.74,6.7
C1Ti0.5W0.5,6.7
Ti0.5W0.5C1,6.7
Nb15Ti75Ta10,6.7
Th1Pt2B2C1,6.7
Y1Ni1.8Co0.2B2C1,6.7
Mo6Se6Br2,6.7
Mg1Co1Ni2.97Co0.03,6.7
Pb0.2Yb0.8Mo6Se8,6.7
Mg1C1Ni3,6.7
Ag1B2,6.7
Th1.8Sc0.2C3,6.7
Cs0.19W1O3,6.7
Mo1.9Nb0.1B1C1,6.7
Nb1Se2,6.7
Sr1Al1Ge1,6.7
Fe1Te0.95Se0.05,6.7
Au0.125Sb0.75Te0.125,6.7
Au25Sb75,6.7
Ba1Fe1.92Co0.08As2,6.7
La1Pt1B1N1,6.7
La1Si10,6.7
La1Fe1P1F0.05O0.95,6.7
Re6Zr1,6.7
Pr2Pt3Ge5,6.7
H1Pt1,6.7
Ta0.7Hf0.3B1,6.7
Mo6Se7.5Te0.5,6.69
Nb5Ir0.8Pt2.2O1,6.69
Hf0.32Ta0.68,6.68
Mo6Se7.7Te0.3,6.66
Cr0.05Nb0.95,6.66
Zr0.5Y0.5P1Se1,6.66
In1Pb1,6.65
Fe0.99Ni0.01Se0.82,6.65
Y0.78Gd0.22Ni2B2C1,6.64
Lu4Sc1Ir4Si10,6.64
Tm1Ni1.9Fe0.1B2C1,6.64
Ca1Al1.1Si0.9,6.63
Pr0.98Ce0.02Pt4Ge12,6.63
La1Sn3,6.628
La1.52Nd0.4Sr0.08Cu1O4,6.62
La1.5Nd0.4Sr0.1Cu1O4,6.62
Cu0.14Sn0.86,6.62
Ho0.95La0.05Ni2B2C1,6.62
Hf0.25Zr0.75,6.62
B12Li2.5,6.62
La1Ru2.94Co0.06Si2,6.62
Mg0.1Pb0.9,6.61
Ho0.8Dy0.2Ni2B2C1,6.61
Hf0.52Ta0.48,6.61
La1Fe1P1O1,6.61
La1.85Sr0.15Cu0.976Zn0.024O4,6.6
Sm0.7Pr0.3Ba2Cu3O6.75,6.6
Lu5Ir4Si8Ge2,6.6
B5Nb1.9Sc0.1,6.6
H0.94Pd1,6.6
Hf0.33Nb0.33V0.33,6.6
Mo0.75Rh0.25,6.6
N1Nb0.9V0.1,6.6
Pb1Sb1,6.6
Re24Ti5,6.6
Ti0.33V0.33Zr0.33,6.6
Nb3Rh0.5Au0.5,6.6
C1Hf0.25Mo0.75,6.6
Hf1N0.989,6.6
Re24Ti6,6.6
Ho1.8Dy0.2Ni2B2C1,6.6
Mo3Se4,6.6
Er1Ni1.97Co0.06B2C1,6.6
Mg1C1Ni3,6.6
Ge0.27V0.73,6.6
Ir0.42Ta0.58,6.6
Nb5Si2.2B0.8,6.6
La1Fe0.875Co0.125As1O1,6.6
La1Fe1P1O1,6.6
B0.048C0.952,6.6
Mg1.2C1.44B0.16Ni3,6.6
Ca1Pt3P1,6.6
Nb2Pd0.81S5,6.6
Au0.2Sb0.6Te0.2,6.6
Fe1Te0.8Se0.1S0.1,6.6
B6Y1,6.6
Re0.55Mo0.45,6.6
Li2B1Pd2.7Pt0.3,6.59
Ti0.588V0.392Ru0.02,6.58
Li2Pd2.55Ni0.45B1,6.58
B2Nb0.4,6.57
Ce0.91La0.09Ru2,6.57
Zr1Os1P1,6.57
La1Ru4P12,6.57
Sr1Pt2.4Pd0.6P1,6.57
Nb0.6Ta0.4,6.56
Ce0.94La0.06Ru2,6.55
Ce0.9Pr0.1Ru2,6.55
Fe3Re2,6.55
La1Sn3,6.55
Bi1,6.55
Bi4S3O4,6.55
Lu4Sc1Ir4Si10,6.54
Ca1Al0.9Ga0.1Si1,6.54
Nb0.58Ta0.42,6.54
Pr0.8Eu0.2Pt4Ge12,6.54
Y0.8Th0.2Ni1C2,6.535
Re27Zr5,6.53
Mg1C1Ni2.98Ru0.02,6.52
Mo6Se7Cl1,6.52
C6Yb1,6.52
Zr2Co0.95Cu0.05,6.52
Dy1Ni2B2C1,6.51
La2.92Pr0.18Tl1,6.51
La1.94Sr0.06Cu1O3.995,6.5
La1.85Sr0.15Cu0.98Zn0.02O4,6.5
Nd1.85Ce0.15Cu0.985Fe0.015O4,6.5
K0.9Bi1.1O3,6.5
Mg1C1Ni3,6.5
C6Yb1,6.5
Sb1Ti3,6.5
Al0.3Be0.7,6.5
B6Y1,6.5
Bi0.86Tl0.14,6.5
Cu0.1Pb0.9,6.5
Ir2Th1,6.5
La1Os2,6.5
La1Sn3,6.5
Mo0.5Re0.5,6.5
Mo0.28Re0.72,6.5
Nb2.9V0.3Au1,6.5
Nb3Si0.6Sn0.4,6.5
Ag0.8Ga0.2,6.5
C1Mo1,6.5
La3S4,6.5
Sn0.174Ta0.826,6.5
La1Pt2.2B2C1,6.5
Th1Ni2B2C1,6.5
As1Nb3,6.5
C0.93Nb1,6.5
Tl2Mo6Se6,6.5
La1Ru3Si2,6.5
Ge0.25V0.75,6.5
Mg1C1Ni2.98Ru0.02,6.5
Th1Sc1C3,6.5
Th1Pt2B2C1,6.5
Nb0.15Zr0.85,6.5
As3La4,6.5
Th1Ir1Si1,6.5
Ca1Al1Si1,6.5
C3La2,6.5
Li2Pd2.4Ni0.6B1,6.5
Mg1C0.98Ni3,6.5
Bi0.1Sn0.9,6.5
La1Fe0.96Ni0.04As1O1,6.5
Fe1.12Se0.03Te0.97,6.5
Fe0.98Se0.25Te0.75,6.5
W4.8Ta0.2Si1B2,6.5
Te2W1,6.5
Mo6Se6.5Cl1.5,6.49
Mo0.4Re0.6,6.49
Nb0.1Ti0.9N0.98,6.48
Ba1Fe1.924Co0.076As2,6.48
Ag0.81Sn1.19Se2,6.47
Mo0.45Re0.55,6.47
C6Yb1,6.47
Lu0.8Ho0.2Ru1B2,6.46
Ca1.5Sr1.5Rh4Sn13,6.46
H0.965Pd1,6.45
Ce0.97La0.03Ru2,6.45
Al0.9Ge0.1,6.45
La1Ru2.85Co0.15Si2,6.45
Ir0.91Se2,6.45
Th1Rh0.96Si1.04,6.45
Pr0.85Eu0.15Pt4Ge12,6.45
Mg1C1Ni2.995Fe0.005,6.44
Mg1C0.771B0.154Ni3,6.44
Er0.25Ho0.75Rh4B4,6.44
La1Ru2.94Cu0.06Si2,6.44
Pb0.73Tl0.27,6.43
Pb0.79Tl0.21,6.43
Pb1Tl0.27,6.43
In0.5Pb0.5,6.43
La1Sn3,6.43
Er0.187Ho0.813Rh4B4,6.43
Nb0.13Zr0.87,6.42
Ho1Rh3.72Ru0.28B4,6.42
Ho1Rh3.6Ru0.4B4,6.42
Ca1.5Sr1.5Rh4Sn13,6.42
Nb5Ir0.4Pt2.6O1,6.42
Bi0.93Sb0.07,6.415
Zr1V1.85Fe0.15,6.41
Tc0.7V0.3,6.41
Ho1Ir2Rh2B4,6.41
Tl0.45Bi0.46Mo6S7.5,6.41
Ca2.5Co0.5Rh4Sn13,6.41
Ca1.5Sr1.5Rh4Sn13,6.41
Zr0.6Lu0.4P1S1,6.41
La1.85Sr0.15Cu0.96Ni0.04O4,6.4
Ba0.47K0.53Bi0.99Pr0.01O3,6.4
Rb1Os2O6,6.4
Mg1C1Ni3,6.4
B2.5Nb1,6.4
Bi5Tl3,6.4
In0.5Nb3Zr0.5,6.4
Sn1Ta3,6.4
V3Si0.2Sn0.8,6.4
V2.739Hf0.261Ga1,6.4
Nb3In0.5Zr0.5,6.4
Ca1Rh2,6.4
Y2I0.6Br1.4C2,6.4
Dy1Ni2B2C1,6.4
Nb1B0.2Rh3,6.4
Ge0.23V0.77,6.4
Ge0.21V0.79,6.4
V0.736Sb0.037Al0.227,6.4
La1Sn3,6.4
Nb3Zr0.5In0.5,6.4
Rh0.075Zr0.925,6.4
Re2Zr1,6.4
Mo6Se8,6.4
Nb5Si2.6B0.4,6.4
Nb5Si2B1,6.4
La1.74Sr0.26Cu1O4,6.4
Lu0.9Gd0.1Ru1B2,6.4
Li2Pd2.85Pt0.15B1,6.4
Zr1Ru1P0.85B0.15,6.4
Zr0.99V0.01B2,6.4
Ca2Al2.73Si4.27,6.4
Ba1Fe1.8Ni0.2As2,6.4
Ba0.818Na0.182Fe2As2,6.4
Tb0.5Sn1Se2,6.4
Tb0.75Sn1Se2,6.4
Tb1Sn1Se2,6.4
Pb1S1Yb1S1,6.39
Mo6Se6Cl2,6.39
Lu5Ir4Si9Ge1,6.38
Mo0.1Nb0.9,6.38
Mo6Se8,6.38
Y1Mo6Se8,6.38
Dy1Ni2B2C1,6.38
La0.9Sr0.1Fe1As0.8P0.5O1,6.38
H0.963Pd1,6.377
Ba0.08K0.92Fe2As2,6.37
Zr1.85Y0.15P1.25Se0.75,6.37
In0.6Pb0.4,6.36
La0.5Nd0.5Pt2.1B2.4C1.2,6.36
Ag0.81Sn1.19Se2,6.36
Ca2.25Sr0.75Ir4Sn13,6.36
Mo0.42Re0.58,6.35
Ho1Rh3Ru1B4,6.35
Lu0.05Dy0.95Ni2B2C1,6.35
Nb1Se2.2,6.35
Ho1Rh2Ir2B4,6.35
Ga0.1Pb0.9,6.33
Mo6Se7.5Cl0.5,6.33
Rb1Os2O6,6.32
Lu2Ir3Si4.98Ge0.02,6.32
Y0.65Pr0.35Ba2Cu3O6.75,6.3
Rb1Os2O6,6.3
Ce1Ru2,6.3
La0.3Th0.7Ni1C2,6.3
Te1,6.3
Rb1Os1O6,6.3
Be2Ga1,6.3
Mo3Se4,6.3
Ti0.9V0.1,6.3
Cs0.3Mo1S2,6.3
Co1Zr2,6.3
Ga1V2.1,6.3
Mo6Se8,6.3
Mg1C1Ni2.94Cu0.06,6.3
B2Re1,6.3
Mg1C0.965Ni3,6.3
Ho1Th3.4Ru0.6B4,6.3
Pb0.1Yb0.9Mo6Se8,6.3
Mo6Se7.85S0.15,6.3
Mo6Se7.9Te0.1,6.3
Ti0.91V0.09,6.3
Zr33.3V59.25Nb7.35,6.3
Ba1Al1Ge1,6.3
Zr1P1.25Se0.75,6.3
Dy1Ni2B2C1,6.3
Re0.65Mo0.35,6.3
Lu0.6Er0.4Ru1B2,6.295
Rb1Os2O6,6.29
Th0.25Zr0.75,6.29
Ge1Nb3,6.281
Mo6Se7.6,6.28
Ce1Ru2,6.28
Ge1Nb3,6.28
Pb0.9Sb0.1,6.28
Mo6Se8,6.28
Hf0.5Ta0.5,6.28
Rb1Os2O6,6.28
Zr1P1.4Se0.6,6.28
Zr1.85Lu0.15P1.25Se0.75,6.278
Nb1S2,6.26
Re3V1,6.26
Dy1Ni2B2C1,6.26
La0.87Th0.13Sn3,6.26
Hf0.2Ta0.8,6.26
Sr1Fe2As0.8P1.2,6.26
Mg1C1Ni2.99Fe0.01,6.25
Mo1Rb0.3S2,6.25
Nb0.5Ta0.5,6.25
Nb3Rh0.5Pt0.5,6.25
Mo6Se8,6.25
Ti0.7V0.3,6.25
Lu2Fe3Si5,6.25
Ba1Pt3.25Au0.75Ge12,6.25
Nb2Pd1S5,6.25
Dy1Ni2B2C1,6.24
La1,6.24
Zr1P1.35Se0.65,6.24
Ir0.94Se2,6.24
Ce1Ru2,6.23
Bi0.85Tl0.15,6.23
Ho0.2Dy0.8Ni2B2C1,6.23
Dy1Ni2B2C1,6.23
Ag0.85Sn1.15Se2,6.23
Mo6Se6.5Te1.5,6.23
La1,6.23
La1Ru2.94Cr0.06Si2,6.23
Ce1Ru2,6.221
Sr1Fe1.68Zn0.12Co0.2As2,6.22
La1Ru2.97Fe0.03Si2,6.22
Zr1P1.3Se0.7,6.22
Mo5.8Ru0.2Se8,6.21
Ca1Al1Si1,6.2
Ce1Ru2,6.2
B12Zr1,6.2
Ce1Ru2Sc1,6.2
Ge0.1In0.9,6.2
Ir0.2Si0.05Zr0.75,6.2
K0.28Mo1S2,6.2
Nb1S2,6.2
Nb0.45Re0.55,6.2
Nb0.25Sn0.25Ta0.25V0.25,6.2
Nb0.47Ta0.53,6.2
Nb0.15Zr0.85,6.2
Rh2Sr1,6.2
Sn1Ta3,6.2
Nb1Se2,6.2
Nb1Ta1V1Sn1,6.2
Nb1Sn1Ta1V1,6.2
V50Ti40Mo10,6.2
Y1Ni1.86Fe0.14B2C1,6.2
Dy1Ni2B2C1,6.2
Pr1Pt1.5Au0.6B2.4C1.2,6.2
Er1Ni1.9675Co0.065B2C1,6.2
Ge1Nb3,6.2
Al0.72Nb3.28,6.2
Lu1Rh4B4,6.2
Mo6Se8,6.2
Ho0.2Dy0.8Ni2B2C1,6.2
In0.6Pb0.4,6.2
Mo5.25Nb0.75Se8,6.2
La3Sn1,6.2
La3Ni1,6.2
Mo1.935Zr0.065B1C1,6.2
Mo1.85Nb0.15B1C1,6.2
La3Pr0.3In1,6.2
Lu2Fe3Si5,6.2
Ga1P1,6.2
As1Ga1,6.2
Lu2Ir3Si4.75Ge0.25,6.2
Ca2Al3Si4,6.2
Ba1Fe1.926Co0.074As2,6.2
Ba0.82Pr0.18Fe2As2,6.2
La1Fe1P1F0.1O0.9,6.2
Sb2Te3,6.2
Hf1Re6,6.2
K2Cr3As3,6.2
Rb1Cr3As3,6.2
Zr1P1.25Se0.75,6.2
La0.9Sr0.1Fe1P1O1,6.195
Ba0.8Rb0.2Ti2Sb2O1,6.19
La0.95Lu0.05Ru3Si2,6.19
Mo48Ru32P20,6.18
Ce1Ru2,6.18
Ga0.8Sb0.2,6.18
Ce1Ru2,6.17
Al1La3,6.16
La1Ru2.97Fe0.03Si2,6.16
Lu0.81Gd0.19Ni2B2C1,6.155
Cu1La1,6.15
Ca1Ir2,6.15
Er0.85Tb0.15Ni2B2C1,6.15
Lu2Fe3Si5,6.15
Er0.134Ho0.866Rh4B4,6.15
Ce0.88La0.12Ru2,6.14
Ti0.7V0.3,6.14
Ho1Rh3.4Ru0.6B4,6.14
Ba1Fe1.856Ni0.144As2,6.14
Ir1Mo3Nb3Pt1,6.13
Mo6Se8,6.13
Nb96.5O3.5,6.13
Zr33.3V61.8Nb4.8,6.13
B2Nb1,6.13
La0.92Y0.08Ru3Si2,6.13
Ge0.18Nb0.82,6.12
Ag0.85Sn1.15Se2,6.12
Bi1La1,6.12
Ge2Mo1,6.11
La1.85Sr0.15CuNi0.037O4,6.1
Mg1C1Ni2.967Ru0.033,6.1
B2Nb0.3,6.1
Ce1Ru2,6.1
Ge1V3,6.1
K0.4Mo1S2,6.1
Mo0.865Re0.135,6.1
Nb1S2,6.1
V3Si0.2Ge0.8,6.1
C1Hf0.7Nb0.3,6.1
Lu2Fe3Si5,6.1
Lu1Re1B1C1,6.1
Hf1Os1P1,6.1
B0.67Mg0.33,6.1
La0.84Tm0.16Ru3Si2,6.1
V0.741Sb0.113Al0.146,6.1
Rh0.08Zr0.92,6.1
Ca1Al1Si1,6.1
Ba3Ir4Ge16,6.1
Ba0.88K0.12Ti2Sb2O1,6.1
K2Cr3As3,6.1
Mo1Te2,6.1
Ti1V1,6.09
Lu4.5Sc0.5Ir4Si10,6.09
Sc0.07V0.93,6.09
Zr1B12,6.09
Fe1Se0.75S0.25,6.09
Ti0.576V0.384Fe0.04,6.08
Ga1,6.07
Zr2Co0.9Cu0.1,6.07
Re0.6Mo0.4,6.07
La1.48Nd0.4Sr0.12Cu1O4,6.06
Lu4.75Sc0.25Ir4Si10,6.06
B12Zr1,6.06
La1,6.06
Zr1.75Y0.25P1.25Se0.75,6.056
Ge0.18Nb0.82,6.05
Nb0.35Hf0.65N1,6.05
Rh0.075Zr0.925,6.05
Fe1.12Se0.11Te0.83,6.05
Nb1S2,6.05
La2.9602Gd0.0398In1,6.04
La1Ru2.76Co0.24Si2,6.04
Ga1,6.04
Li0.34Rb1Sr2Nb3O10,6.03
Nb80Ga16Mn4,6.03
Pb1Te1Pb1S1,6.03
Ti0.1V0.9,6.03
Lu4.5Sc0.5Ir4Si10,6.03
Ho0.6Dy0.4Ni2B2C1,6.02
La1Sn3,6.02
Li0.1Rb1Sr2Nb3O10,6.02
Li0.34Rb1Sr2Nb3O10,6.01
La1Fe0.985Zn0.015As1O0.85,6.01
Ta0.85Zr0.15B1,6.01
Y0.9Th0.1Ni1C2,6.005
La1.85Sr0.15Cu0.979Co0.021O4,6
La1.875Ba0.1Sr0.025Cu1O4,6
C60Yb2.75,6
Y1Ba2Cu2.91Zn0.09O6.6,6
La1.75Sr0.25Cu1O4,6
Nd2Cu1F0.1O4,6
K0.95Bi1.05O3,6
Pr1.8Ce0.2Cu1O4,6
B12Zr1,6
C60Yb3.5,6
Ca1Al1Si1,6
Pr1Pt2B2C1,6
Hg1Pb2.3,6
Na0.33V2O5,6
Lu5Ir4Si9.5Ge0.5,6
La9Br5B3C6,6
Ba6.63Si46,6
B5Nb1.8Ru0.2,6
Ba1Rh2,6
Be6Ga1,6
Co0.85Ni0.15Zr2,6
In0.488Na0.025Pb0.488,6
Re0.6W0.4,6
Rh0.53Se0.47,6
Rh0.36Se0.64,6
C1Nb1,6
Rh1Se1.75,6
C0.7Nb0.3,6
Ce1Ru2,6
Ge0.29Nb0.71,6
Ge1Nb3,6
N1Nb1,6
Ta25Ti75,6
Pr1Pt1.5Au0.6B2C1,6
Ho0.6Dy0.4Ni2B2C1,6
Dy1Ni2B2C1,6
Lu1Ni1.87Co0.26B2C1,6
Zr2Rh1H0.7,6
Nb1S2,6
Mg1C1Ni2.91Cu0.09,6
Mg1Co1Ni2.94Co0.06,6
Mg1Co1Ni2.91Co0.09,6
Pr1Pt2.1B2.4C1.2,6
Yb1Mo6Se8,6
Y2I0.5Br1.5C2,6
Zr2Co0.85Ni0.15,6
Be1,6
P1,6
Ba8Si40Ge6,6
Nb0.85V0.15,6
La2.9706Gd0.0294In1,6
Mg0.73Sc0.27B2,6
Lu2Fe3Si5,6
Y1Os3B2,6
Th0.8Sc1.2C3,6
Th1Ni2B2C1,6
Sn0.24Eu0.8Mo6.35S8,6
Mo0.4Re0.6,6
Al1La3,6
Ge1V3,6
Bi0.6Tl0.4,6
La1,6
Lu1Fe3Si5,6
La1Fe0.85Co0.15As1O1,6
B6Y1,6
Fe1.02Se1,6
Na1Fe1As1,6
Fe1Se0.13Te0.87,6
Li1Fe1P1,6
Fe1.035Te0.78Se0.22,6
Ba1Fe1.856Ni0.144As2,6
B1,6
Cs0.23W1O3,6
Fe2As2Sr4Mg1Ti1O6,6
Nb4Co1Si1,6
Ca10Pt3.28Fe9.72As18,6
Cu0.14Bi2Te3,6
Au0.1Sb0.8Te0.1,6
Sm1Fe0.92Ni0.08As1O1,6
Ba8Si41Al5,6
Nb2Pd1S5,6
Mg1.4Al0.6Si1,6
Mg1Al1Si1,6
Zr1V1Ge1,6
Eu0.9La0.1Fe1As2,6
Te5Zr1,6
Mo3Sb7,6
Re24Ti5,6
Re6Ti1,6
Ta1Rh2B2,6
Ta0.75Zr0.25B1,6
Ba1Bi3,6
Nb0.91Ni0.09B2,6
In74.72Sn15.36Pb8.75Si1.17,6
Y1Ba2Cu3O6.55,59.9
Y1Ba2Cu3O6.59,59.9
Sm1Ba2Cu3O6.709,59.8
Y0.8Pr0.2Ba2Cu3O7.4,59.8
La0.8Pr0.2Ba2Cu3O7,59.8
Y1Ba2Cu3O6.64,59.7
Ca0.2Ba1.55La1.25Cu3O7.11,59.7
Y0.7Pr0.3Ba2Cu3O7,59.7
Y1Ba2Cu3O6.71,59.6
Y1Ba2Cu3O6.49,59.53
Y1Ba2Cu3O6.556,59.4
Y1Ba2Cu3O6.602,59.4
Y1Ba2Cu3O6.546,59.4
Y0.7Pr0.3Ba2Cu3O6.97,59.3
Y0.7Pr0.3Ba2Cu3O7,59.2
Sm1Ba2Cu3O6.82,59.2
Gd0.85Mo0.15Ba2Cu3O6.855,59.2
Lu0.6Pr0.4Ba2Cu3O7,59.1
Pb2Sr2Ho0.5Ca0.5Cu2.97Al0.03O8,59.1
Y1Ba2Cu3O6.67,59.1
Y1Ba2Cu3O6.7,59.1
Y0.85Pr0.15Ba2Cu3O6.8,59
La0.25Dy0.75Ba1Ca1Cu3O7,59
Y0.7Ca0.3Ba2Cu2.7Co0.3O6.78,59
Y1Ba2Cu3O6.71,59
Pb2Sr2Eu0.95Ca0.05Cu3O8.1,59
Y1Ba2Cu0.97Zn0.03O7.95,59
Y1Ba2Cu3.96Fe0.04O8,59
Hg1Ba2Cu1O4.34,59
Y1Ba2Cu3O6.6,59
Sm1Ba2Cu2.94Zn0.06O6.85,59
Y1Ba1.6La0.4Cu3O7.04,59
Y1Ba2Cu3O6.56,59
La3Ca0.5Cd0.5Ba3Cu7O16.375,59
Tl2Ba2Cu1O6,59
Y1Ba2Cu3O6.6,58.9
Y1Ba2Cu3O6.65,58.9
Y1Ba2Cu3O6.66,58.9
Y1Ba2Cu2.8Fe0.2O6.9,58.8
Y1Ba2Cu3O6.5,58.8
Y1Ba2Cu3O6.61,58.7
Y0.8Pr0.2Ba2Cu3O7,58.7
Y1Ba2Cu3O6.516,58.7
Y1Ba1Sr1Cu3O6.83,58.5
Y0.8Pr0.2Ba2Cu3O6.95,58.5
Y1Ba2Cu3O6.556,58.5
Fe0.5Sr1Ba1Y1Cu2.5O7,58.5
Bi2Sr2Ca0.8Pr0.2Cu2O8,58.45
Y1Ba2Cu3O6.6,58.4
Y1Ba2Cu3O6.55,58.3
I1Bi2Sr2Ca1Cu2O8,58.3
Y1Ba2Cu3O6.6,58.2
Y1Ba2Cu2.775Co0.225O6.99,58
Y1Ba2Cu2.6Ni0.4O7,58
Tl2Ba2Cu1O5.94,58
Y1Ba2Cu3O6.54,58
Y1Ba2Cu3O6.6,58
Y1Ba2Cu4Li0.125O8,58
Y1Ba2Cu4Li0.25O8,58
Y1Sr2Cu2.7Ti0.3O7,58
Bi2Sr2Ca1Cu2I1O8,58
Y0.6Pr0.4Ba2Cu4O8,58
Sr1.75Ba0.25Cu1F2O2,58
Y1Ba2Cu3.88Co0.12O8,58
Lu0.7Ca0.3Ba2Cu3O6.15,58
Eu1.4Pr0.6Ba4Cu7O14.632,58
La2.9Gd0.3Ca0.6Ba3.2Cu0.3O16.503,58
Y1Ba2Cu3O6.72,58
La2.5Y0.5Ca1Ba3Cu6.44Fe0.56O16.617,58