formula,Tc
Fe1Se0.5Te0.5,13.8
Ba1Fe1.85Ni0.15As2,13.8
Y0.95Ce0.05Ni2B2C1,13.8
Li1Fe0.975Co0.025As1,13.8
Zr1Ru1P1,13.8
Fe1Se0.4Te0.6,13.8
La1.85Sr0.15Cu0.985Ga0.015O4,13.7
Bi1.8Pb0.2Sr1.6La0.4Cu1O6.182,13.7
La1.751Ba0.249Cu1O4,13.7
La1.85Sr0.15Cu0.98Zn0.02O4,13.7
La1.8Sr0.2Cu0.9753Zn0.0247O4,13.7
Y1Ni1.9Cu0.1B2C1,13.7
Pb1Mo6S8,13.7
Nb80Ga19Co1,13.7
Y1Ni1.9Pt0.1B2C1,13.7
Nb0.92Hf0.08N0.93,13.7
Nb0.85Zr0.15N1,13.7
Mo0.18Tc0.82,13.7
Nb0.8W0.2C1,13.7
Mo0.9Ru0.1C1,13.7
Fe1Se0.246Te0.574,13.7
Fe1Se0.25Te0.75,13.7
Fe1.12Se0.3Te0.7,13.7
Ca10Pt4.8Fe9.2As18,13.7
Na1Fe0.99Co0.01As1,13.7
Nd1Fe0.5Ru0.5As1F0.11O0.89,13.7
Sr1.8Ca0.2V1Fe1As1O3,13.7
Fe1Se0.3Te0.7,13.7
Ba1Fe1.925Ni0.075As2,13.7
Fe1Te0.6Se0.4,13.7
Pb0.9Cu0.18Mo6S8,13.65
W0.25Sn0.875Mo6S8,13.635
Gd0.32Pr1.53Ce0.15Cu1O4,13.6
La1.45Nd0.4Sr0.15Cu1O4,13.6
Pd0.84Au0.16H0.9,13.6
Ga0.265V0.735,13.6
B2Mg1,13.6
C1Mo0.9Ru0.1,13.6
Ga0.8Ge0.2V3,13.6
Nb3Sn0.4Al0.6,13.6
Nb2.859Zr0.141Al1,13.6
Nb0.8Ga0.19Cr0.01,13.6
Lu0.93La0.07Ni2B2C1,13.6
Lu0.92La0.08Ni2B2C1,13.6
Pb0.7Eu0.3Mo6.35S8,13.6
Ga26.5V73.5,13.6
La1.85Sr0.15Cu0.978Zn0.022O4,13.6
Sr0.8K0.2Fe2As2,13.6
Fe1.02Te0.8Se0.2,13.6
Ca10Pt3.617Fe9.383As18,13.6
La1Fe0.5Ru0.5As1F0.11O0.89,13.6
Fe0.02Te0.8Se0.2,13.6
Pr0.8Sr0.2Fe1As1O1,13.6
Fe1.02Te0.5Se0.5,13.6
Li1Ti2O4,13.6
Ba0.5K0.5Fe1.7Co0.3As2,13.56
Nd1.85Ce0.15Cu0.996Ni0.004O4,13.5
La1.83Sr0.17Cu0.65Ni0.35O4,13.5
Y0.47Pr0.53Ba2Cu3O6.96,13.5
Y1Ba2Cu3O6.37,13.5
Pr1.295Gd0.555Ce0.15Cu1O4,13.5
Sm1.85Ce0.15Cu1O4,13.5
H0.4La1.89Sr0.11Cu0.995Fe0.005O4,13.5
Nd1.665Tb0.185Ce0.15Cu1O4,13.5
Y1Ba2Cu3O6.41,13.5
La1.875Ba0.05Sr0.075Cu1O4,13.5
La1.81Sr0.19Cu0.98Ru0.02O4,13.5
C3La2,13.5
Pu1Co0.9Fe0.1Ga5,13.5
Al0.33Nb0.67,13.5
N0.84Nb1,13.5
V2.814Nb0.186Ga1,13.5
Pb1Mo6S8,13.5
Mg1B1.8C0.2,13.5
K0.77Zr1N1Cl1,13.5
V0.75Si0.225Al0.025,13.5
Nb0.05Mo0.95C1,13.5
Mo0.95Ti0.05C1,13.5
Gd0.91La0.89Sr0.2Cu1O4,13.5
Mo1N1,13.5
La1.85Sr0.15Cu0.97Ni0.03O4,13.5
La1.85Sr0.15Cu0.985Co0.015O4,13.5
Sr1Fe1.5Ru0.5As2,13.5
Sr1Fe1.3Ru0.7As2,13.5
Fe1Se0.38Te0.62,13.5
Sr1Fe1.76Co0.24As2,13.5
Nd0.8Sr0.2Fe1As1O1,13.5
Ba1Fe1.78Co0.22As2,13.5
Ba1Fe1.85Ni0.15As2,13.5
Fe1.03Te0.8Se0.2,13.5
Ba1Fe1.832Co0.15Mn0.018As2,13.5
Fe0.95Zn0.05Se0.3Te0.7,13.5
Ce1Fe0.78Co0.22As1H1,13.5
Ca0.92La0.08Fe8.6Pd4.2As18,13.5
Y0.9Tb0.1Ni2B2C1,13.48
Ba1Fe2As1.6P0.4,13.475
Nb0.71Mo0.29C1,13.45
Ba1Fe1.87Zn0.04Co0.09As2,13.42
La1.85Sr0.15Cu0.97Ni0.03O4,13.4
Mo5S6Sn1,13.4
Mo0.1Tc0.9,13.4
V2.94Fe0.06Si1,13.4
V2.754Ti0.246Ga1,13.4
Nb2.85Mo0.15Al1,13.4
Y1Ni1.98Fe0.02B2C1,13.4
Sn1Mo6S8,13.4
Li0.95Zr1N1Cl1,13.4
Sr1Fe1.816Co0.184As2,13.4
Fe1Se1,13.4
Na1Fe0.939Co0.061As1,13.4
Pr1.83Ce0.17Cu1O4,13.4
Ba0.85Ce0.15Fe2As2,13.4
Li1Fe0.99Ni0.01As1,13.35
V75Si2.57Ga22.4,13.32
La1.86Ba0.14Cu1O4,13.3
Ga0.5Mo5S6Sn1,13.3
V3Si0.87Ga0.13,13.3
Nb78.4Sn12.9Al2.2Ge6.5,13.3
Nb77Sn13.8Al6.9Ge2.3,13.3
Ga0.19Nb0.81,13.3
Pb1Mo6S8,13.3
Ho0.3Lu0.7Ni2B2C1,13.3
Ga0.233V0.767,13.3
V0.75Si0.22Al0.03,13.3
N0.93Nb1,13.3
Mo0.9V0.1C1,13.3
Fe1Se0.75Te0.25,13.3
Sr1Fe1.75Co0.25As2,13.3
Sr0.958Eu0.042Fe1.76Co0.24As2,13.3
Ba1Fe1.894Pd0.106As2,13.3
Ca9.57La0.43Pt3Fe10As18,13.3
Fe0.99Co0.01Se0.3Te0.7,13.3
Ca1Fe0.78Co0.22As1H1,13.3
Fe1Te0.54Se0.45S0.01,13.3
Ba1Fe1.786Rh0.214As2,13.3
Lu0.945Gd0.055Ni2B2C1,13.28
H0.55La0.89Sr0.11Cu0.995Fe0.005O4,13.2
La0.2Mo6.35Pb0.8S8,13.2
Mo5.1Pb0.9S6,13.2
V2.7Zr0.3Si1,13.2
V0.003Ga0.974Pb0.026,13.2
Si1V2.7Zr0.3,13.2
La3Ni2B2N3,13.2
Nb0.35Ti0.65N0.97,13.2
Nb0.7W0.3C1,13.2
Mo0.95Zr0.05C1,13.2
La1.85Sr0.15Cu0.9825Co0.0175O4,13.2
Sr1Fe1.7Co0.3As2,13.2
Fe1Se0.41Te0.41,13.2
Fe1Se0.25Te0.75,13.2
Sr1Fe1.752Co0.248As2,13.2
Ba1Fe1.925Ni0.075As2,13.2
La1.9Sr0.1Cu0.99Ni0.01O4,13.1
V3Ga0.957Ge0.043,13.1
Nb3Sn0.2Ga0.8,13.1
Nb0.8Ga0.18Cr0.02,13.1
Nb80Ga18Fe2,13.1
Nb0.5Mo0.5C1,13.1
Nb0.25Mo0.75C1,13.1
Nb0.75W0.25C1,13.1
Mo0.9Ti0.1C1,13.1
Fe1Se0.164Te0.656,13.1
Fe1Te0.58Se0.4S0.02,13.1
Ca0.82Ce0.18Fe1As2,13.1
Pd1Se2,13.1
V0.745Ga0.228Al0.027,13.05
Sn0.6Mo3S4,13.05
La1Fe0.95Co0.05As1O1,13.02
La2.8Ba3.2Cu6O14.07,13
La1.85Ca0.989Sr0.161Cu2O5.93,13
C60K3,13
Y1Sr2Cu2.7Co0.3O6.5,13
Sr1.75K0.25Cu1C1O5,13
Nd1.3Ba1.3Ca0.4Cu3O6.912,13
Bi1.95Sr1.65La0.4Cu1F0.8O5.4,13
Pr1.83Ce0.17Cu1O3.99,13
Ba1.6Sr0.4Yb0.8Ca0.2Cu3O6.04,13
Pr1.665Y0.185Ce0.15Cu1O4,13
La1.855Ba0.145Cu1O4,13
La1.79Nd0.1Ba0.11Cu1O4,13
Sr0.5Rb0.5Bi1O3,13
Ru1Sr2Gd0.98Ce0.02Cu2O8,13
La1.763Sr0.237Cu1O4,13
Tl1Ba0.2Ca0.8La1Cu1O5,13
Nd1.85Ce0.15Cu0.99Fe0.01O4,13
Nd1.85Ce0.15Cu0.98Zn0.02O4,13
Y1Ba2Cu2.76Zn0.24O7,13
Dy1Ba2Cu2.8Zn0.2O6.95,13
La1.74Sr0.26Cu1O4,13
La1.76Sr0.24Cu0.995Zn0.005O4,13
Nd2Cu1F0.2O4,13
Nd0.925Gd0.925Ce0.15Cu1O4,13
Sm1.665Gd0.185Ce0.15Cu1O4,13
C0.9N0.1Sr2Cu1O5.35,13
Pr1.83Ce0.17Cu1O4,13
Ru0.97Co0.03Sr2Gd1CuO8,13
Ca1.9Na0.1Cu1Cl2O2,13
C0.44Mo0.56,13
Nb3Au0.7Pt0.3,13
C1.45Y0.9Zn0.1,13
Mo6S7Sn1,13
Co0.44Mo0.56,13
C1Mo1,13
Nb77.3Sn18.1Al2.3Ge2.3,13
Nb77.9Sn11.1Al5.5Ge5.5,13
Zr1Ru1P1,13
Zr1N1Cl1,13
Y1Ni1.85Cu0.15B2C1,13
Mo6S6Br2,13
Mo6S6I2,13
Nb2.778Ti0.222Al1,13
N0.84H2.52Na1K2C60,13
Y0.95Gd0.05Ni2B2C1,13
Y1.8Zr0.2C2.9,13
Nb0.65W0.35C1,13
Li0.3Ti1.1S2,13
Ca1Li2,13
K0.2Sr0.8Fe2As2,13
Fe1Se0.5Te0.5,13
Fe1.013Se0.3Te0.7,13
Ba1Fe2As2,13
Fe1.03Te0.7Se0.3,13
Li1Fe0.975Co0.025As1,13
Ca10Fe9.2Pt3.8As18,13
Ca1Fe2As1.925P0.075,13
Fe1Te0.5Se0.5,13
Na1Fe1As1,13
Ca10Pt4.05Fe8.95As18,13
Pr0.8Sr0.2Fe0.97Zn0.03As1O1,13
Na1Fe0.99Co0.01As1,13
Fe0.99Zn0.01Se0.3Te0.7,13
Fe1.02Te0.5Se0.4S0.1,13
K0.08Zr1N1Cl1,13
Fe1Se0.2Te0.8,13
Ba0.812K0.188Fe2As2,13
Re0.4Mo0.6,13
Ca10Pt4.3Fe8.7As18,13
Hg0.8Mo0.2Ba2Ca2Cu3O8.4,129
Hg0.85Re0.15Ba1.44Sr0.56Ca2Cu3O8,128.7
Hg0.8V0.2Ba2Ca1Cu2O6.3,128
Hg0.6Ti0.4Ba2Ca2Cu3O8.4,128
Hg0.8Nd0.2Ba2Ca2Cu3O8.3,128
Hg1Ba2Ca1Cu2O6.22,127
Hg0.8Mo0.2Ba2Ca1Cu2O6.4,127
Hg0.8Ti0.2Ba2Ca1Cu2O6.2,127
Hg0.8V0.2Ba2Ca2Cu3O8.3,127
Hg1Ba2Ca1Cu2O6.21,127
Hg1Ba2Ca1Cu2O6.24,126
Hg0.8V0.2Ba2Ca1Cu2O6.3,125
Hg0.8Pb0.2Ba2Ca2Cu3O8.3,125
Tl2Ba2Ca2Cu3O10,125
Hg1Ba2Ca1Cu2O6,125
Th1Ca3Ba1Cu3O9,124.5
Tl2Ba2Ca4Cu5O14,124
Tl0.5Pb0.5Sr1.6Ca2.4Cu3O9,124
Hg0.8Ge0.2Ba2Ca1Cu2O6.2,124
Tl1Ba2Ca2Cu3O9,123
Tl2Ba2Ca2Cu3O10,123
Tl1Ba2Ca3Cu4O11,122.1
Tl0.6Pb0.2Bi0.2Sr1.8Ba0.2Ca2Cu3O9,122
Hg1Ba2Ca1Cu2O6.19,122
Hg1Ba2Ca1Cu2O6.24,122
Tl2Ba2Ca2Cu3O10,121
Hg1Ba2Ca1Cu2O6.16,121
Hg1Ba2Ca1Cu2O6.24,121
Tl2Ba2Ca3Cu4O12,120
Tl2Ba2Ca5Cu6O16,120
Hg0.8V0.2Ba2Ca2Cu3O8.3,120
Hg0.6Pb0.4Ba2Ca2Cu3O8.4,120
Ba2Ca2Cu3F1.2O6.8,120
H1W1O3,120
Zr1Ru1P1,12.93
Ru0.8Rh0.2Sr2Gd1Cu2O8,12.9
Li1Ti2O4,12.9
Al0.5Ga0.5V3,12.9
C1.5La0.9Th0.1,12.9
C1.5Ti0.3Y0.7,12.9
Nb0.24Tc0.76,12.9
Nb0.75Au0.175Pt0.075,12.9
Mg0.5Al0.5B2,12.9
Pb1Mo6S8,12.9
Y1.4Ti0.6C3,12.9
Mo0.84V0.16C1,12.9
Sr1Fe1.6Co0.4As2,12.9
Fe1Te0.7Se0.3,12.9
Fe1.03Te0.5Se0.5,12.9
La1Fe1As1F0.14O0.86,12.9
La1Fe1As0.7P0.3F0.14O0.86,12.9
V3Si0.8Sn0.2,12.85
C60K3,12.8
Sm1Ba2Cu3O6.55,12.8
Nb1N1.08O0.27,12.8
Zr1N1Cl0.7,12.8
Nb0.03Tc0.97,12.8
Nb0.06Tc0.94,12.8
Ti0.013V0.987,12.8
V2.7Nb0.3Si1,12.8
Si1V2.7Nb0.3,12.8
Y1Ni1.98Ru0.02B2C1,12.8
Nb0.75Au0.175Pt0.075,12.8
Mo0.84Ti0.16C1,12.8
Mo0.8V0.2C1,12.8
Pr0.9Sr0.1Fe1As1O1,12.8
Ba1Fe1.774Co0.226As2,12.8
Sm1Fe0.875Co0.125As1O1,12.8
Fe1Se0.2Te0.8,12.8
Ca1Fe1.952Rh0.048As2,12.8
La1.882Ba0.118Cu0.99Ni0.01O4,12.7
La1.86Ba0.14Cu1O4,12.7
Y0.5Pr0.5Ba2Cu3O6.95,12.7
Ba0.45K0.55Bi1O3,12.7
Ga0.8In0.2V3,12.7
Nb78.5Sn2.2Al9.6Ge9.6,12.7
Nb0.8W0.2C1,12.7
Pb1Mo6S8,12.7
La1.9Th0.1C1.35,12.7
Y0.9Tb0.1Ni2B2C1,12.7
Nb0.85Mo0.15C1,12.7
Y1Ni1.9Mn0.1B2C1,12.7
Hf1Ru1P1,12.7
Pb1Mo6S7.9Se0.1,12.7
Zr1N1Cl0.7,12.7
Li1Ti2O4,12.7
Mo3Os1,12.7
Ga0.25V0.75,12.7
Mo0.95Hf0.05C1,12.7
Zr0.12N1Cl1,12.7
La1.85Sr0.15Cu0.97Ni0.03O4,12.7
Fe1Se0.492Te0.328,12.7
Fe1.02Te0.85Se0.15,12.7
Fe0.02Te0.85Se0.15,12.7
Ca9.6La0.4Pt3Fe10As18,12.7
La1Fe0.925Co0.075As1O1,12.66
La1.85Sr0.15Cu0.982Zn0.018O4,12.6
Mo6.35Pb1S8,12.6
V2.799Cr0.201Ga1,12.6
Nb3Sn0.5Ge0.5,12.6
Nb3Al0.5Ge0.5,12.6
Al0.5Ge0.5Nb1,12.6
Pb1Mo6S8,12.6
V0.737Ga0.213Al0.05,12.6
V0.75Si0.2125Al0.0375,12.6
Fe1Se0.45Te0.55,12.6
Li0.16Zr1N1Cl1,12.6
Sr1Fe1.7Pt0.3As2,12.6
Na1Fe0.985Co0.015As1,12.6
Na1Fe0.982Cu0.018As1,12.6
Ca1Fe2As1.9P0.1,12.6
Eu1Fe1.86Rh0.14As2,12.6
Na1Fe1Ni0.006As1,12.6
Y0.85Tb0.15Ni2B2C1,12.54
Ba1.9K0.1Pb0.85Bi0.15O4,12.5
Bi2Sr1.6Eu0.4Cu1O6.301,12.5
Sr2Cu1C0.95B0.05O5,12.5
Bi2Sr2Cu1O6,12.5
Pr1.11Gd0.74Ce0.15Cu1O4,12.5
La1.725Nd0.15Sr0.125Cu1O4,12.5
Ba1Pb0.75Bi0.25O3,12.5
Al1Nb2.1V0.9,12.5
Au0.7Nb3Pt0.3,12.5
Ga1Nb2.4V0.6,12.5
Mo5Pb1S7,12.5
Mo3Os1,12.5
Nb1P1S1,12.5
Nb78.1Sn7.3Al7.3Ge7.3,12.5
B0.03C0.51Mo0.47,12.5
C1Nb0.6W0.4,12.5
Nb80Ga17.5Cr2.5,12.5
C60Rb3,12.5
Li0.4Zr1N1Cl1,12.5
Ga0.2V0.8,12.5
Nb0.5W0.5C1,12.5
Fe1.03Se0.25Te0.75,12.5
Fe1.053Se0.3Te0.7,12.5
Y0.9Gd0.1Ni2B2C1,12.5
Fe2As2Ca4Al1.34Ti0.66O6,12.5
Sr0.85Eu0.15Fe1.76Co0.24As2,12.5
La3Ni2B2N2.7,12.5
Fe1Se0.5Te0.5,12.5
Ba1Fe1.974Mo0.026As2,12.5
Ba1Fe1.86Co0.12Mn0.02As2,12.5
La1.885Sr0.115Cu0.9925Zn0.0075O4,12.45
Ca10Pt3.51Fe9.49As18,12.44
La1.84Ba0.16Cu0.99Zn0.01O4,12.4
Li1Ti2O4,12.4
Mo0.95Hf0.05C0.74,12.4
C1.45Cr0.1Y0.9,12.4
Nb3Sn0.4Sb0.6,12.4
Nb0.8Ga0.18Ni0.02,12.4
Y1.8Cr0.2C2.9,12.4
Mg0.97Mn0.03B2,12.4
Fe1.03Te0.7Se0.3,12.4
Zr1Ru1P1,12.34
V75Si20Ga5,12.33
Y1Ba2Cu3O6.346,12.3
Li1Ti2O4,12.3
Ga0.222V0.778,12.3
Nb1N1.22O0.18,12.3
V2.802Ta0.198Ga1,12.3
La3Ni2B2N3,12.3
Lu1Ni1.95Co0.1B2C1,12.3
Nb2.7Mo0.3Al1,12.3
Pb0.9Yb0.1Mo6Se8,12.3
Y0.9Gd0.1Ni2B2C1,12.3
Pb1Mo6S8,12.3
V0.725Ga0.203Al0.072,12.3
Nb0.85Hf0.15N0.94,12.3
Mo0.6Re0.4,12.3
Ga22.2V77.8,12.3
La1.901Ba0.099Cu1O4,12.3
Fe1Se0.5Te0.5,12.3
Sr0.28Eu0.72Fe1.76Co0.24As2,12.3
Ba1Fe1.946Pd0.054As2,12.3
C60Rb3,12.25
Na1Fe0.986Cu0.014As1,12.25
Nb0.51Mo0.49C1,12.22
Sm0.9Pr0.1Ba2Cu3O6.55,12.2
K0.8La0.2Bi1O3,12.2
K0.75La0.25Bi1O3,12.2
Ga0.281V0.719,12.2
Mo1B0.01C0.82,12.2
Nb0.5Sn0.25Ta0.125V0.125,12.2
Nb2Ta0.5V0.5Sn1,12.2
C1Mo2,12.2
Nb2Sn1Ta0.5V0.5,12.2
Nb80Ga18Co2,12.2
Mg0.6Al0.4B2,12.2
Zr1Ru1Si1,12.2
Pb0.8Yb0.2Mo6Se8,12.2
V0.741Ga0.196Al0.063,12.2
Tl1Mo6Se7.5,12.2
Ga28.1V71.9,12.2
Lu1,12.2
K0.7Sr0.3Fe2As2,12.2
Ba1Fe1.925Ni0.075As2,12.2
Li0.13Zr1N1Cl1,12.2
Pr1Fe0.9Co0.1As0.85P0.15O1,12.2
Ca0.85Eu0.15Fe1As2,12.2
La1Fe0.973Zn0.027As1F0.28O0.68,12.2
Fe1Te0.65Se0.3S0.05,12.2
Li1Fe0.993V0.007As1,12.2
Mo1S2,12.2
La1Fe2As2,12.2
Li1Ti1O4,12.15
V75Si20Ge5,12.15
Cr4.84Ga25V70.16,12.14
Gd0.51Pr1.34Ce0.15Cu1O1,12.1
Li1.04Ti1.96O4,12.1
Li1Ti2O4,12.1
Ga0.296V0.704,12.1
C0.69Mo1,12.1
Y1Ni1.5Pd0.5B2C1,12.1
Y1Ni1.3Pd0.7B2C1,12.1
Y1Ni1.94Co0.06B2C1,12.1
Nb0.95Mo0.05C1,12.1
Nb0.3Mo0.7C1,12.1
N0.9H2.7Na1Rb2C60,12.1
Y1Ni1.6Pt0.4B2C1,12.1
V0.767Ga0.086Al0.147,12.1
V0.767Ga0.214Al0.022,12.1
Ga29.6V70.4,12.1
N0.89Nb1,12.1
Sr1Fe1.76Zn0.04Co0.2As2,12.1
Re0.35Mo0.65,12.05
C0.148N0.638Ta1,12.01
Sr0.2La1.8Cu0.99V0.01O4,12
La1.88Ba0.12Cu1O4,12
Bi2Sr1.9La0.1Cu1O6.2,12
Y1Sr2Cu2.7Ti0.3O7.144,12
La1.35Sm0.45Sr0.2Cu1O4,12
Tl2Ba2Cu1O6,12
Sr0.7Ba1.3Y1Cu2.8Al0.2O7.03,12
Ba1Pb0.75Bi0.25O3,12
Cu0.75Ga0.25Sr2Y1.3Ce0.7Cu2O8.6,12
Y0.5Pr0.5Ba2Cu3O6.96,12
Hg0.75Mo0.25Ba2Cu1O4.59,12
La1.45Nd0.4Sr0.15Cu1O4,12
Sm1.71125Y0.13875Ce0.15Cu1O4,12
La1.75Nd0.1Ba0.15Cu1O4,12
La1.64Nd0.2Ba0.16Cu1O4,12
Sr0.4K0.6Bi1O3,12
La1.73Sr0.27Cu1O4,12
Nd1.85Ce0.15Cu0.995Ni0.005O4,12
Nd1.85Ce0.15Cu0.975Zn0.025O4,12
Y1Ba2Cu3.9Zn0.1O8,12
La1.85Sr0.15Cu1O3.987,12
Nd0.74Gd1.11Ce0.15Cu1O4,12
Ru1Sr2Sm1Cu2O8,12
Li1.05Ti1.95O4,12
La1.931Sr0.069Cu1O4,12
Mo1N1,12
C1,12
Mo0.95Hf0.05C0.73,12
C1Nb1,12
Mo0.3Tc0.7,12
Nb1Ru3,12
N1Ta1,12
Li2Na1N1C60,12
C0.985Nb1,12
N0.86H2.58Na1Rb2C60,12
Na2Cs1C60,12
Li2Cs1C60,12
Zr1Ru1Si1,12
Mg0.4Al0.6B2,12
Y0.85Pr0.15Ni2B2C1,12
Y0.75Dy0.25Ni2B2C1,12
S1,12
N0.72H2.16Na1K3C60,12
Mg0.6Al0.4B2,12
V0.743Ga0.181Al0.076,12
Y1.8Th0.2C2.7,12
Pb1Mo6.35S8,12
Mo0.6Re0.4,12
Nb0.75Mo0.25C1,12
Mo0.8W0.2C1,12
Mo0.8Ti0.2C1,12
Ca1Fe2As2,12
B0.015C0.985,12
Li1Fe1As1,12
Na0.5Fe1As1,12
Fe1Se0.25Te0.75,12
Sr2Sc1Fe1P1O3,12
Sm1Fe1As1F0.1O0.9,12
La1Fe0.95Rh0.05As1O1,12
Ba0.7K0.3Fe1.66Co0.34As2,12
Ba0.7K0.3Fe1.72Co0.28As2,12
Ca1Fe1.73Co0.27As2,12
Sr0.81Eu0.19Fe1.76Co0.24As2,12
Pr0.8Sr0.2Fe0.94Zn0.06As1O1,12
Fe0.98Zn0.02Se0.3Te0.7,12
C0.681Mo1,12
Ba0.85K0.15Fe2As2,12
Ba0.816K0.184Fe2As2,12
Mo1S2,12
Li1Ti2O4,12
Tl2Ca2Ba2Cu3O10,119.95
Hg0.8V0.2Ba2Ca1Cu2O6.3,119
B0.6C0.4Sr0.5Ba1.5Ca2Cu3O9,119
Tl2Ba2Ca2Cu3O10,118.5
Hg1Ba2Ca2Cu3O8.28,118.5
Tl2Ca2Ba2Cu3O10,118
Tl1.6Ba2Ca2.4Cu3O9.67,118
Tl1.4Ba2Ca2.6Cu3O9.53,118
Tl1.4Ba2Ca3Cu4O11.4,118
Tl2Ba2Ca2Cu3O10,118
Hg0.8W0.2Ba2Ca1Cu2O6.4,118
Hg0.9W0.1Ba2Ca1Cu2O6.2,118
Tl1Ba2Ca2Cu3O9,118
Hg0.9Pb0.1Ba2Ca2Cu3O8.25,118
Bi1.7Pb0.3Sr2Ca2Cu3F0.8O9.2,117.6
C0.3Ba2Ca4Cu5.7O11.18,117.5
Cu1Cr0.95Fe0.05O2,117.5
Tl0.5Pb0.5Sr1.6Ca2.4Cu3O9,117
Cu0.5C0.5Ba2Ca3Cu4O11,117
Tl0.25Li0.25Ba2Ca2Cu3.5O7.955,117
C0.3Ba2Ca4Cu5.7O10.77,116.7
C0.3Ba2Ca4Cu5.7O10.69,116.3
Tl1.7Ba2Ca2.3Cu3O9.82,116
Tl0.8Bi0.2Ba2Ca2Cu3O9,116
Ba2Ca3Cu4O10.35,116
C0.3Ba2Ca4Cu5.7O10.66,115.7
Bi0.8Nd0.1Tb0.1Pb1Sr2Ca2Cu3O10,115.5
C0.3Ba2Ca4Cu5.7O10.57,115.1
Tl2Ba2Ca2Cu3O10,115
Sr16.7Ca7.7Cu19.4C1.9B2.9O51.7,115
Tl0.5Pb0.5Sr2Ca2Cu3O9,115
Hg0.8V0.2Ba2Ca1Cu2O6.3,115
Hg0.8Cr0.2Ba2Ca1Cu2O6.1,115
Pb0.5Sr2Ca1Cu2.5O6.8,115
Hg1Ba2Ca3Cu4O1,115
Hg1Ba2Ca3Cu4O2,115
Bi0.8Nd0.1Tb0.1Pb1Sr2Ca2Cu3O10,115
Tl0.5Ba2Ca0.3Be1.7Cu3.5O7.685,115
Tl0.5Ba2Ca1.5Be1.5Cu4.5O9.887,115
H1Br3C61,115
C0.3Ba2Ca4Cu5.7O10.45,114.3
Tl2Ba2Ca1Cu2O8,114.1
Tl1Ba1Ca1Cu2O5.5,114
Tl2Ba2Ca2Cu3O9.83,114
Tl1Ba2Ca3Cu4O11,114
Tl1Ba2Ca2Cu3O9,114
Bi2Sr2Ca2Cu3O1,114
Hg0.8Mn0.2Ba2Ca1Cu2O6.2,114
C0.3Ba2Ca4Cu5.7O10.34,113.5
Tl2Ba2Ca1Cu2O8,113.1
Tl0.5Pb0.5Sr1.6Ca2.4Cu3O9,113
C1Ba3Ca3Cu5O13,113
Bi1.7Pb0.3Sr2Ca2Cu3F0.5O9.5,113
Tl1.62Ba2Ca2.3Cu3O9.92,113
Tl0.25Li0.25Ba2Ca2Cu2.5Si1O7.853,113
Tl2Ba2Ca1Cu2O8,112.1
Tl2Ba2Ca1Cu2O7.833,112
Tl2Ba2Ca2Cu3O9.964,112
Tl1.8Ba2Ca2.2Cu3O9.92,112
Tl0.5Pb0.5Sr2Ca2Cu3O9,112
Bi1.8V0.2Sr2Ca2Cu3O2,112
Hg0.7Bi0.3Sr2Ca2Cu3O8.15,112
Bi2Sr2Ca2Cu3O,111
Tl2Ba2Ca2Cu3O9.877,111
Sr2Ca2Cu3F3.2O6.2,111
Tl2Ba2Ca1Cu2O8,111
Bi1.7Pb0.3Sr2Ca2Cu3F0.2O9.8,111
Bi0.9Nd0.05Tb0.05Pb1Sr2Ca2Cu3O10,111
Tl0.25Li0.25Ba2Ca2Cu3Si0.5O7.835,111
Tl2Ba2Ca1Cu2O7.876,110
Tl2Ba2Ca2Cu3O9.841,110
Bi1Sr1Ca1Cu1O1,110
Ca0.285Sr0.665Cu1O2,110
C1Ba3Ca3Cu5O13,110
Hg0.8Cr0.2Ba2Ca1Cu2O6.1,110
Hg0.8Cr0.2Ba2Ca2Cu3O8.1,110
B1Sr2Ca3Cu4O11,110
Hg0.5Pb0.5Ba2Ca4Cu5O12.5,110
Hg1Ba2Ca2Cu3O8.22,110
Tl1Ba2Ca2Cu3O9,110
Ca0.27Sr0.63Cu1O2,110
Sr0.7Ca0.3Cu1O2,110
Hg1Tl1Ba2Ca3Cu4O12,110
Hg1Ba2Ca1Cu2O6.27,110
Tl0.5Ba2Ca1Be2Cu4.5O9.948,110
Tl2Ba2Ca1Cu1.98Fe0.02F0.1O7.95,110
Bi2Sr2Ca2Cu3O10,110
La1.9Sr0.1Cu0.99Zn0.01O4,11.97
Lu0.75Th0.25Rh4B4,11.93
Pr1.85Ce0.15Cu0.995Ni0.005O4.065,11.92
Sm0.7Pr0.3Ba2Cu3O6.95,11.9
La1.89Ba0.11Cu1O4,11.9
Sr2Y1Ru0.95Cu0.05O6,11.9
Li0.98Mg0.02Ti2O4,11.9
Nb1N1.25O0.25,11.9
V2.7Mn0.3Si1,11.9
V2.793Ni0.207Ga1,11.9
Nb3Rh0.02Au0.98,11.9
V3Ga0.8Si0.2,11.9
Zr1Ru1As1,11.9
Li1Ti2O4,11.9
Mo0.9Hf0.1C1,11.9
Fe1.03Te0.9Se0.1,11.9
Nd1Fe0.97Mn0.03As1F0.11O0.89,11.9
Y0.9Ce0.1Ni2B2C1,11.9
Fe0.03Te0.9Se0.1,11.9
Ce1Fe1As1F0.05O0.95,11.9
Ca1Fe1.958Rh0.042As2,11.9
La1Fe1As1F0.14O0.86,11.9
Fe1Te0.7Se0.3,11.9
Hf1Ru1P1,11.89
La1Fe0.925Ir0.075As1O1,11.85
Ca10Pt3.474Fe9.526As18,11.85
C0.017N0.632Ta1,11.84
C0.97Ta1,11.84
Ba0.5K0.5Fe1.8Cu0.2As2,11.83
Th1Co0.6Ni0.4C2,11.83
Li1.08Ti1.92O4,11.8
Nb0.4Ta0.6C1,11.8
Mo1B0.03C0.82,11.8
Cu1Mo3S4,11.8
Mo0.66Re0.34,11.8
O0.105Rh0.285Zr0.61,11.8
Zr0.61Rh0.285O0.105,11.8
Y1Ni1Pd1B2C1,11.8
Y1Ni0.8Pd1.2B2C1,11.8
Lu0.8Dy0.2Ni2B2C1,11.8
C0.98Nb1,11.8
Nb0.8Ga0.17Ni0.03,11.8
N0.75H2.25Na1K2C60,11.8
Sn1Mo6S8,11.8
Y1Ni1.82Pd0.18B2C1,11.8
V0.746Ga0.169Al0.085,11.8
V0.75Si0.2Al0.05,11.8
Ta0.05Mo0.95C1,11.8
Ba0.8Na0.2Fe2As2,11.8
Fe0.97Zn0.03Se0.3Te0.7,11.8
Sr1Ca13Cu24O41,11.8
Ba2Ti2Fe1.94Cr0.06As4O1,11.8
Lu0.772Dy0.228Ni2B2C1,11.77
Lu1Rh4B4,11.76
Li1.035Ti1.965O4,11.75
Sm1Fe0.85Co0.15As1O1,11.75
La3Ni2B2N3,11.73
Nd0.75Pr0.25Ba2Cu3O6.96,11.7
Na2Cs1C60,11.7
Hg1.4Tl0.6Ba2Y1Cu2O7.92,11.7
La1.937Sr0.063Cu1O4,11.7
Ba1Pb0.75Bi0.25O3,11.7
Li1Ti2O4,11.7
La1.85Sr0.11Ho0.04Cu1O4,11.7
V2.799Mo0.201Ga1,11.7
Nb3Al0.55Ge0.45,11.7
Mo0.3Si1,11.7
Sn1Mo6S8,11.7
Lu1Rh4B4,11.7
Li0.6Zr1N1Cl1,11.7
V0.747Ga0.131Al0.122,11.7
V0.77Si0.21Al0.02,11.7
V0.75Ge0.15Al0.1,11.7
Th1.4Lu0.3C3,11.7
Pb1Mo6S6O2,11.7
Li1.07Ti1.93O4,11.7
Mo0.9W0.1C1,11.7
Ce1Fe1As1F0.05O0.95,11.7
Sr1Fe1.85Pt0.15As2,11.7
Ba0.2K0.8Fe2As2,11.7
Mo3Os1,11.69
Nb0.15Mo0.85C1,11.673
La1Fe1As0.15P0.85O1,11.67
Ru0.9Nb0.1Sr2Gd1Cu2O8,11.65
Fe1.02Te0.5Se0.3S0.2,11.64
C6Ca1,11.62
La1.85Sr0.15Cu0.988Fe0.012O4,11.6
Ba1Pb0.75Bi0.25O3,11.6
Y2C2Br0.5I1.5,11.6
Mo0.5Re0.5,11.6
Y1Ni1.8Cu0.2B2C1,11.6
Ho0.5Y0.5Ni2B2C1,11.6
La1Mo6Se8,11.6
Nb80Ga17Fe3,11.6
Na2Cs1C60,11.6
Th1.2Lu0.8C3,11.6
Nb0.9W0.1C1,11.6
C3Y2,11.6
Li0.18Zr1N1Cl1,11.6
C6Ca1,11.6
Ca1Fe2As2,11.6
Li0.28Zr1N1Cl1,11.6
Fe1.18Te0.6Se0.4,11.6
Ba1Fe1.924Co0.076As2,11.6
Ba1Fe1.906Co0.042Cu0.052As2,11.6
Gd1Fe0.7Ir0.3As1O1,11.6
La1.85Sr0.15Cu0.971Ni0.029O4,11.6
Sm1Fe0.925Co0.075As1O1,11.6
Ca9.5Yb0.5Pt3Fe10As18,11.6
Na1Fe0.978Cu0.022As1,11.6
C6Ca1,11.57
C0.98Nb1,11.56
Sr0.4K0.6Bi1O3,11.55
La1.9Sr0.1Cu0.99Ni0.01O4,11.5
Sr0.4K0.6Bi1O3,11.5
Y1Ba2Cu3.9Zn0.1O8,11.5
Mo1B0.05C0.82,11.5
C6Ca1,11.5
Au1Nb3,11.5
C1.45V0.1Y0.9,11.5
C1.45Y1,11.5
C3Y2,11.5
V2.883W0.117Ga1,11.5
V3Ga0.937In0.063,11.5
Y1Ni1.94Co0.06B2C1,11.5
Y1Ni1.8Cu0.2B2C1,11.5
Nb2.73Ti0.27Al1,11.5
Nb0.8Ga0.17Cr0.03,11.5
Mo0.62Re0.38,11.5
Pb1Mo6S8,11.5
V0.767Ga0.18Al0.053,11.5
Y1.8V0.2C2.9,11.5
Li1Ti2O4,11.5
Mo0.9Zr0.1C1,11.5
Mo0.84Hf0.16C1,11.5
Lu1Rh4B4,11.5
Fe1Te0.925Se0.075,11.5
Pr0.8Sr0.2Fe0.8Co0.2As1O1,11.5
K0.26Zr1N1Cl1,11.5
La1Fe0.999Mn0.001As1F0.11O0.89,11.5
Na1Fe0.981Cu0.019As1,11.5
Nd1Fe1As1F0.3O0.7,11.5
C6Ca1,11.48
C6Ca1,11.46
Zr1Ru1P1,11.45
Lu1Rh4B4,11.45
Y0.8Tb0.2Ni2B2C1,11.43
La1Fe1As0.2P0.8O1,11.42
Li2.6Ti1.7O4,11.4
Li1Ti2O4,11.4
C6Ca1,11.4
Rh0.25Zr0.75,11.4
Nb2.7Mo0.3Al1,11.4
V0.741Ga0.152Al0.107,11.4
V0.75Ge0.1875Al0.0625,11.4
Mo0.8Hf0.2C1,11.4
La1Si5,11.4
Ca1Fe1.956Rh0.044As2,11.4
Rh1Zr2,11.36
Y1Rh4B4,11.34
Tc0.9V0.1,11.32
Ba0.6K0.4Bi0.7Pb0.3O3,11.3
Ba0.9K0.1Bi0.4Pb0.6O3,11.3
Y1Ba2Cu2.6Co0.4O7.03,11.3
Y1Ba2Cu3O6.38,11.3
Sr0.4K0.6Bi1O3,11.3
Sm0.85Gd1Ce0.15Cu1O3.97,11.3
C6Ca1,11.3
Nb1N1.34O0.27,11.3
C1.35Si0.1Y0.9,11.3
V2.7Cr0.3Si1,11.3
Ge0.5Nb3Sn0.5,11.3
N0.7Nb1,11.3
Si1V2.7Cr0.3,11.3
Cu1.6Mo6S8,11.3
Y1Rh4B4,11.3
La1Mo6Se8,11.3
V0.75Ge0.13Al0.12,11.3
Nb3Sn0.5Ge0.5,11.3
Y1.8Si0.2C2.7,11.3
Mo0.6W0.4C1,11.3
Mo0.4W0.6C1,11.3
Fe0.98Ni0.02Se0.82,11.3
Rh1Zr2,11.3
Fe1Te0.69Se0.25S0.06,11.3
Ba1Fe1.935Ni0.065As2,11.3
Na1Fe0.975Cu0.025As1,11.3
Mo0.55Pt0.05Re0.425,11.25
Rh0.33Zr0.67,11.25
Lu1Rh4B4,11.249
Tc0.8V0.2,11.24
Ba1Pb0.7Bi0.3O3,11.23
Au1Nb3,11.23
Au1Nb3,11.22
Nd1.85Ce0.15Cu0.996Co0.004O4,11.2
Nd1.85Ce0.15Cu0.995Ni0.005O4,11.2
Gd0.6Pr0.4Ba2Cu3O6.95,11.2
Li2.6Ti1.9O4,11.2
La1.79Sr0.21Cu0.98Ru0.02O4,11.2
Au0.25Nb0.75,11.2
B5Mo1.69Zr0.31,11.2
C0.4Mo0.6,11.2
C1.35Ru0.1Y0.9,11.2
Rh0.33Zr0.66,11.2
V3Si0.76Al0.24,11.2
V3Ga0.994Cd0.006,11.2
Rh1Zr2,11.2
C1Nb1,11.2
Nb80Ga19Mn1,11.2
Nb78Ga21Mn1,11.2
Y2I1.6Br0.4C2,11.2
Y0.9Gd0.1Ni2B2C1,11.2
V0.75Ge0.025Al0.225,11.2
Y1.8Ru0.2C2.7,11.2
C3La2,11.2
Y0.9Pr0.1Ni2B2C1,11.2
Fe1Cr0.01Se1,11.2
Ca0.74La26Fe0.975Co0.025As2,11.2
Ba1Fe2S3,11.2
Rb1Eu1Fe3.72Ni0.28As4,11.2
Sr0.4K0.6Bi1O3,11.18
V3Ge0.7Al0.3,11.17
La0.9Sr0.1Fe1As0.8P0.4O1,11.14
La1.8Sr0.2Cu0.97Ni0.03O4,11.1
Y0.8Pr0.2Ba2Cu3O6.5,11.1
La1.8Sr0.2Cu0.9727Zn0.0273O4,11.1
Ba0.6K0.4Bi0.933Pr0.067O3,11.1
C3La2,11.1
C6Ca1,11.1
C1Nb1,11.1
Mo0.52Re0.48,11.1
Pb1Mo6S7,11.1
Rh0.14Zr0.86,11.1
Tm1Ni2B2C1,11.1
Zr2Rh1H0.08,11.1
Au1Nb3,11.1
Mg0.31Al0.69B2,11.1
Y2I1.5Br0.5C2,11.1
V0.75Si0.175Al0.075,11.1
Ta0.5Nb0.5C1,11.1
Mn0.2Fe0.8Se0.85,11.1
Ba1Fe1.776Co0.224As2,11.1
Ba0.5K0.5Fe1.8Ni0.2As2,11.1
Sm1Fe0.7Ru0.3As1F0.15O0.85,11.1
Na1Fe1As1,11.1
La1Fe1As1F0.2O0.8,11.1
Na1Fe0.976Cu0.024As1,11.1
La1Fe1As0.8P0.2F0.14O0.86,11.1
Au1Nb3,11.08
Tc0.75V0.25,11.07
Zr1Ru1As1,11.05
V3Ge0.8Al0.2,11.02
La1Fe0.9Co0.1As1O1,11.02
Eu0.65La1.2Ce0.15Cu1O4,11
Bi1Pb1Sr0.12Pr0.12Cu1O6,11
La1.86Ba0.14Cu0.99Ni0.01O4,11
Ba1.7K0.3Pb0.95Bi0.05O4,11
Ba1.7K0.3Pb0.9Bi0.1O4,11
Gd1.4Ce0.6Sr2Cu2Ti1O10,11
Pr1.5725Y0.2775Ce0.15Cu1O4,11
La1.6Nd0.2Ba0.2Cu1O4,11
La1.52Nd0.4Ba0.08Cu1O4,11
Sr0.4K0.6Bi1O3,11
Nd1.85Ce0.15Cu0.97Zn0.03O4,11
La1.685Nd0.2Sr0.115Cu1O4,11
La1.5Ba1.4Ca0.1Cu3O6.912,11
Rb1Bi1O3,11
Rb0.9Bi1.1O3,11
Rb0.7Bi1.3O3,11
Rb0.6Bi1.4O3,11
Ba0.47K0.53Bi1O3,11
La1.48Nd0.4Sr0.12Cu1O4,11
Ru0.7Sn0.3Sr2Gd1Cu2O8,11
Ca1.8Na0.2Cu1Br2O2,11
La1.8Sr0.2Cu0.99Zn0.01O4,11
Li1Ti2O4,11
C3La2,11
Cu1Mo4S5,11
Mo6.35Pb0.9S8Sn0.12,11
Nb0.75Zr0.25,11
Rh1Zr3,11
Rh0.12Zr0.88,11
Nb3Pt1,11
Nb3Rh0.05Au0.95,11
C1Ta1,11
C1.35La1,11
Er1Ni2B2C1,11
Tm1Ni2B2C1,11
Y0.8Tb0.2Ni2B2C1,11
La0.94Mo6Se8,11
La1Pt1.5Au0.6B2.4C1.2,11
Au0.24Nb0.76,11
Au0.25Nb0.75,11
Nb80Ga17Co3,11
N0.87H2.61Na1K2C60,11
Na2Cs1C60,11