formula,Tc
Nb70Mo10Si20,4.8
Ba1,4.8
As1Ga1,4.8
C13La1,4.8
C1Ta0.4Ti0.6,4.8
Cu1Rh2S4,4.8
Nb0.8Ru0.2,4.8
Hf1Re2,4.8
C1Hf0.5Nb0.5,4.8
In1Sb1,4.8
Na0.2Ba6Si46,4.8
Lu1Ni1.85Co0.3B2C1,4.8
Ho1Ni1.99Co0.02B2C1,4.8
Dy1Ni2B2C1,4.8
Er0.8Tb0.2Ni2B2C1,4.8
B1Re3,4.8
Cr0.01V0.99,4.8
Nb4.4Re1,4.8
Rh0.02Zr0.98,4.8
Rh0.05Zr0.95,4.8
Lu5Ir1.2Rh2.8Si10,4.8
Pd0.15Zr0.85,4.8
Ge1Nb3,4.8
La3Ru1Pd3Ge13,4.8
La0.9Ce0.1Ru4P12,4.8
Th1Pt4Ge12,4.8
La1Fe1P1O1,4.8
Mg10.5Ir19B17.1,4.8
Pb1.14Nb3Se7.14,4.8
Rb0.16W1O3,4.8
Sc2Fe3Si5,4.8
Pb0.35Sn0.35In0.3Te1,4.8
Cr2Re3B1,4.8
Rb2Cr3As3,4.8
La1Fe1As0.6P0.4O1,4.8
Hf1Te5,4.8
La1Ru2.814Ni0.186Si2,4.8
Nd1Bi1S2F0.5O0.5,4.8
Nd1F0.5Bi1S2O0.5,4.79
Bi3.875Co0.125S3O4,4.79
Ca1Al0.7Ga0.3Si1,4.78
Cr0.0081V0.9919,4.78
Nd1Bi1S2F0.5O0.5,4.78
Nd1F0.5Bi1S2O0.5,4.78
Nd1F0.7Bi1S2O0.7,4.78
Zr0.926Lu0.074B12,4.78
Ce0.8La0.2Ru2,4.77
La2.4S4Y0.6,4.77
Zr0.935Lu0.065B12,4.77
Bi3.875Mn0.125S3O4,4.77
K1Cr3As3,4.77
Nb0.14Ta0.86,4.76
Lu0.9Tb0.1Ru1B2,4.76
Ba0.87Nd0.13Fe2As2,4.76
Na0.28Co1H2.6O3.3,4.75
Bi2Cs1,4.75
Ir1.05Nb0.95,4.75
Mo2Zr1,4.75
Re24Zr5,4.75
Re3Ta1,4.75
Ir1.15Nb0.85,4.75
Sr1Ga1.2Si0.8,4.75
Cu1Rh2S4,4.75
Si0.005V0.995,4.75
C1,4.75
Sn0.6In0.4Te1,4.75
Nd1Bi1S2F0.7O0.3,4.75
Bi3.9Mn0.1S3O4,4.75
Hf0.7Lu0.3P1.55S0.45,4.75
B1Mo2,4.74
Ce1Ru1.99Co0.01,4.74
Cu0.01V0.99,4.74
Mo6.86Zr93.14,4.74
Hf0.6Y0.4P1.45S0.55,4.74
Sr1Ga0.9Si1.1,4.73
Th0.9La0.1Ru2,4.73
Pd0.18Ti0.82,4.73
Mg1C1Ni2.9Ru0.1,4.72
Pb3Y1,4.72
Ti0.564V0.376Ru0.06,4.72
Cu1Rh2S4,4.72
Bi2Pd1,4.72
Li0.62Cs1Ca2Nb3O10,4.71
Ir3Th1,4.71
Ag1Sn1Se2,4.71
V75Ge12.5Sb12.49,4.71
Pd0.2Ti0.8,4.71
Ca3Rh4Sn13,4.71
La1.75Sr0.25Cu0.97Ni0.03O4,4.7
Eu1.7575Gd0.0925Ce0.15Cu1O4,4.7
Na0.35Co1H2.6O3.3,4.7
Na0.3Co1H2.6O3.3,4.7
Na0.25Co1H2.6O3.3,4.7
Na0.35Co1H1.4O2,4.7
Lu5Ir4Si9.9Ge0.1,4.7
Na0.33Ta1S2,4.7
Ti52Nb30Si18,4.7
Nb80Si16Ge4,4.7
Nb80Si16B4,4.7
La3Ir2Ge2,4.7
Dy0.9Tb0.1Ni2B2C1,4.7
B12Y1,4.7
Ba1,4.7
Fe0.08Nb0.05Ti0.87,4.7
Ge1Ir1,4.7
Os2Y1,4.7
Re0.75Ta0.25,4.7
Ti0.775V0.225,4.7
Nb1Se2,4.7
Mo0.5Re0.5,4.7
V2.808Re0.192Si1,4.7
Cu1Rh2S4,4.7
B1Re3,4.7
Y1Re1B1C1,4.7
Y2Br1.75Cl0.25C2,4.7
Ag1Sn1Se2,4.7
Rb0.2W1O3,4.7
Sr1Al1Si1,4.7
Pr1Fe0.95Co0.05As1O1,4.7
Mg12Ir19B16,4.7
Y1Pd2Sn1,4.7
Nd1Bi1S2F0.5O0.5,4.7
Bi4S3O4,4.7
Ir0.93Te2,4.7
Nd1F0.3Bi1S2O0.7,4.7
La0.8Y0.2Fe0.965Mn0.035As1F0.11O0.89,4.7
Sr2.5Sn1O1,4.7
Zr4Rh2O1,4.7
Ag0.12In0.88,4.69
Ce0.97Gd0.03Ru2,4.69
Th1Rh4B4,4.69
Lu1Os3B2,4.69
Mo32Ru48P20,4.68
Nb2S1C0.85,4.68
Ho1Rh2.6Ru1.4B4,4.68
Nb0.8W0.2,4.68
Ir0.95Te2,4.68
Ce0.1Nd0.9F0.5Bi1S2O0.5,4.68
Ce0.1Nd0.9Bi1S2F0.5O0.5,4.68
Ru0.4W0.6,4.67
La0.5Th0.5Sn3,4.67
Nb0.16Ta0.84,4.67
Pb0.4Tl0.6,4.67
Bi3.925Mn0.075S3O4,4.67
Cr0.1Nb0.9,4.66
Si0.01V0.99,4.66
H0.75Nb0.85Pd0.15,4.66
Ag1Sn1Se2,4.66
Nd0.4Sm0.6F0.3Bi1S2O0.7,4.66
Al0.18La0.82,4.65
Ce0.0007La0.9993,4.65
Bi0.05In0.95,4.65
Nb0.17Ta0.83,4.65
La0.99Nd0.01,4.65
Hf1Ru1As1,4.65
Fe9.92Ga25V65.08,4.65
Nd0.8Sm0.2Bi1S2F0.7O0.3,4.65
Re3Ta1,4.65
Sr3Rh4Sn13,4.65
La0.98Lu0.02,4.643
La98Lu2,4.643
Nb0.2Ta0.8,4.64
Dy1Ir2Rh2B4,4.64
Pd0.05Ti0.95,4.64
La0.933Gd0.067Sn3,4.64
Er1Ni1.92Fe0.08B2C1,4.63
Hf1P1.5S0.5,4.63
Si3Y1,4.63
Mo0.815Pt0.185,4.62
Lu1Os3B2,4.62
Th1Pt4Ge12,4.62
La0.8Ce0.2Ru3Si2,4.62
Ta0.9Zr0.1B1,4.62
Bi2Pd1,4.62
Nb41.25Ta13.75Rh45,4.615
Na0.75Co1H2.6O3.3,4.61
La3Te4,4.61
Li0.98Fe1.02As1,4.61
Pr0.915Ce0.085Pt4Ge12,4.61
Zr1P1.1Se0.9,4.61
Y0.5Pr0.5Ba2Cu3O6.61,4.6
La1.8Sr0.2Cu0.96Zn0.04O4,4.6
Na0.35Co1H2.6O3.3,4.6
Na0.26Co1H2.6O3.3,4.6
Ti70Nb15Si15,4.6
Au0.167Pd0.166Te0.667,4.6
B1Re2,4.6
C3Er1Th1,4.6
Ir1.15Nb0.85,4.6
Os2Sc1,4.6
Pb3Zr5,4.6
Re0.25W0.75,4.6
P0.95Zr1,4.6
Nb2.49V0.51Au1,4.6
Nb3Rh0.7Au0.3,4.6
C1Ta0.2Zr0.8,4.6
Ce0.005La0.995,4.6
V50Ti40Ta10,4.6
Y0.65Tb0.35Ni2B2C1,4.6
Dy1Ni2B2C1,4.6
Ca1Al1.4Si0.6,4.6
Cu1.5Rh1.5S4,4.6
Zr24.3V48.5Nb27.2,4.6
Th1Er1C3,4.6
Mo1.7Ta0.3B1C1,4.6
Ba1Fe1.66Zn0.12Co0.22As2,4.6
Lu2Ir3Si4.25Ge0.75,4.6
Lu2Ir2.97Rh0.03Si5,4.6
Ba1Ti2Bi2O1,4.6
Au16.7Pd16.6Te66.7,4.6
Sr1Pt2As2,4.6
La3Co4Sn11.7In1.3,4.6
K1Mo1S2,4.6
Nb0.95Ni0.05B2,4.6
Na0.75Co0.9995Ir0.0005H2.6O3.3,4.59
Pb1S1Pb1Se1,4.59
Nd0.8Sm0.2F0.3Bi1S2O0.7,4.59
Nb0.15Ta0.85,4.58
Al1Gd0.003La3,4.58
La1Ru2.94Fe0.06Si2,4.58
Nd0.6Sm0.4Bi1S2F0.7O0.3,4.58
La0.59Rh4P12,4.58
Mo0.2Nb0.8,4.57
Sn0.005V0.995,4.57
Cr0.0132V0.9868,4.57
Mo2Zr1,4.57
Mo0.8Pt0.2,4.56
La1Fe0.875Ir0.125As1O1,4.56
Th1Pt4Ge12,4.56
B2Nb0.8,4.55
Pd2Y1Sn1,4.55
V50Ti45Ta5,4.55
Ce0.84Y0.1Gd0.06Ru2,4.55
Th0.8Nd0.2Ru2,4.55
Nb0.1Ta0.9,4.55
Ta0.0355V0.9645,4.55
Dy0.9Tm0.1Ni2B2C1,4.55
Ag1Sn1Se2,4.55
La1Bi1S2F0.9O0.54,4.55
V2.4Mo0.6Si1,4.54
Nb0.08Ta0.92,4.54
N0.8V1,4.54
Ru0.47V0.53,4.53
Sc5Co4Si10,4.53
Mo0.81Pt0.19,4.53
Dy1Rh2Ir2B4,4.53
Pb0.928Sn0.232Ti2Se5.16,4.53
Hf0.7Y0.3P1.45S0.55,4.53
Re0.76V0.24,4.52
Sc2Fe3Si5,4.52
Co0.007V0.993,4.52
Lu1.94Dy0.06Fe3Si5,4.52
La1Fe1As1F0.2O0.8,4.52
Ba1Ti2Sb0.4Bi1.6O1,4.52
Bi1Te1Cl1,4.52
Hf0.7Y0.3P1.55S0.45,4.52
V50Ti49Ta1,4.51
Ho1Ni1.95Co0.03B2C1,4.51
Ca1Al0.6Ga0.4Si1,4.51
Ce0.86Tb0.14Ru2,4.51
In0.9Pb0.1,4.51
Nb0.037Ta0.963,4.51
La1.943Sr0.057Cu1O4,4.51
La1Bi1S2F0.5O0.5,4.51
La1Ru2.94Fe0.06Si2,4.51
V50Ti49.5Ta0.5,4.505
La1.87Ba0.13Cu0.99Ga0.01O4,4.5
Ba0.6K0.4Bi0.925Pr0.075O3,4.5
Ba0.47K0.53Bi0.979Pr0.021O3,4.5
Na0.75Co1H2.6O3.3,4.5
Na0.3Co1H2.8O3.4,4.5
Na0.22Co1H1.8O2.85,4.5
Mg0.9Zn0.1C1Ni3,4.5
Nb80Si16C4,4.5
Sc4Rh6Sn19,4.5
Au0.2B5Mo1.8,4.5
Ba1,4.5
Bi1Nb3,4.5
Nb0.9Re0.1,4.5
S1.1Zr1,4.5
Nb0.32Re0.68,4.5
C1Hf0.6Nb0.4,4.5
Ti50V50,4.5
Cu1.5Rh1.5S4,4.5
Lu4.95Sc0.05Ir4Si10,4.5
Ca1Al1.3Si0.7,4.5
La0.99Sm0.01,4.5
Rh0.01Zr0.99,4.5
Sc2Fe3Si5,4.5
As1Ga1,4.5
Nb0.9Mg0.1B2,4.5
Nb0.75Mg0.25B2,4.5
Lu2Fe3Si5,4.5
Th1Rh4B4,4.5
Ho5Os4Si15,4.5
Na0.33H2.86Co1O3.42,4.5
Mg0.9Zn0.1C0.98Ni3,4.5
Fe1Te0.8S0.2,4.5
Y2Al1Ge3,4.5
Ba0.75Na0.25Ti2Sb2O1,4.5
Au0.075Sb0.85Te0.075,4.5
Ce1Bi1S2F0.7O0.3,4.5
Bi3S3O2,4.5
Nd1Bi1S2F0.5O0.5,4.5
Nd1F0.5Bi0.84S2O0.5,4.5
Gd1Sm1Ni2,4.5
Ba7.7Eu0.3Al5Si41,4.5
Sn1As0.9Se0.1,4.5
Li0.25Sr2Cu1I2O2,4.5
Ce0.6Th0.4Ru2,4.5
Na0.75Co1H2.6O3.3,4.49
Zr1V1.7Fe0.3,4.49
Tc0.65V0.35,4.49
Ir0.28W0.72,4.49
Al0.01V0.99,4.49
Er0.03La0.97,4.49
Ir0.85Rh0.1Te2,4.49
Zr0.926Lu0.074B12,4.49
Mo6Se7S1,4.48
Ta1,4.48
Pr0.8Sr0.2Fe0.7Co0.3As1O1,4.48
Ba2Bi3,4.48
Ce0.2Nd0.8Bi1S2F0.5O0.5,4.48
Ce0.2Nd0.8F0.5Bi1S2O0.5,4.48
La0.2Th0.8Ir3,4.48
Hf0.6Lu0.4P1.45S0.55,4.48
Nb0.016Ta0.984,4.47
Nb0.04Ta0.96,4.47
Ta0.1V0.9,4.47
Mo0.04Zr0.96,4.47
Sm1Fe1As1F0.1O0.9,4.47
Bi4S3O4,4.47
Bi2Pd1,4.47
Nb0.025Ta0.975,4.465
Ta1,4.463
Sn1,4.46
Ir0.28W0.72,4.46
La1Tl0.24Pb2.76,4.46
Zr27.1V54.1Nb18.8,4.46
Ta0.0568V0.9432,4.46
Sc2Fe3Si5,4.46
La1Bi1S2F0.7O0.54,4.46
Ba2Bi2.75Sb0.25,4.46
Ce1Bi1S2F0.6O0.4,4.46
Ta4Pd3Te16,4.46
Ce0.2Nd0.8F0.5Bi1S2O0.5,4.46
Sn0.55In0.45Te1,4.46
La0.9Th0.1Ni1C2,4.45
Cu1S4V2,4.45
In0.97Pd0.03,4.45
Cu0.025V0.975,4.45
Cu1V2S4,4.45
Th0.9La0.3Ru2,4.45
Nb0.05Ta0.95,4.45
Mg10Ir19B16,4.45
B2Nb1,4.44
H0.37Mo0.1Nb0.72Pd0.18,4.44
Bi2.95La0.05S3O2,4.44
Al0.2La0.8,4.43
Nb2S1C0.82,4.43
Ta1,4.43
Bi2S2F0.1O0.9,4.43
Pr1Pt4Ge11.5Sb0.5,4.43
Ta1,4.425
La2.9251Ce0.0749In1,4.42
Au1Pb2,4.42
Ta1,4.42
Nb1Rh1P1,4.42
Ba1Pb0.45Hg0.3Bi0.25O3,4.42
Ce0.2Nd0.8F0.5Bi1S2O0.5,4.42
Hf0.5Y0.5P1.45S0.55,4.42
La1Ru2,4.416
N0.99Ti1,4.41
Ta1Rh1P1,4.41
Th1Ir1.4Os0.6,4.41
Th1Rh4B4,4.41
Er0.8Gd0.2Rh4B4,4.41
La1Ni0.84Bi2.04,4.41
Bi4S3O4,4.41
In1,4.405
La1.85Sr0.15Cu0.976Co0.024O4,4.4
La1.875Ba0.125Cu1O4,4.4
Sm0.7Pr0.3Ba2Cu3O6.85,4.4
Na0.22Co1H1.8O2.85,4.4
Mg10Ir19B16,4.4
C60Sr4,4.4
Nb82Si18,4.4
Cu1.3K0.2Co1.5S4,4.4
Ta1,4.4
Na0.1Ta1S2,4.4
Au1Pb3,4.4
B12Yb0.01Zr0.99,4.4
Bi0.26Tl0.74,4.4
Os0.74W0.26,4.4
Nb1Se0.25Te0.75,4.4
Tm1Ni1.92Co0.16B2C1,4.4
La2Rh3Si5,4.4
Y2Br1.5Cl0.5C2,4.4
Ca1Al1.25Si0.75,4.4
Cs0.1W1O2.9F0.1,4.4
As2Te3,4.4
Al1Sc1Au2,4.4
Co1La3,4.4
Ta1Re1Si1,4.4
Y0.6La0.4B6,4.4
Ca1Ga1Si1,4.4
Bi4S3O4,4.4
Ba2Bi3,4.4
Nb2B1N1,4.4
Cs0.96Bi4Te6,4.4
Cs1Bi4.1Te5.9,4.4
Sn0.5In0.5Te1,4.4
Nd1F0.5Bi1S2O0.5,4.4
Sn1As0.87Se0.13,4.4
Sc5Rh6Sn18,4.4
Bi1.8Pb0.2Pd1,4.4
Pd1Bi1.85Pb0.15,4.4
Zr2Co0.7Cu0.3,4.39
Bi3.925Co0.075S3O4,4.39
Ti0.76V0.24,4.382
Na0.75Co0.9995Ga0.0005H2.6O3.3,4.38
Al0.046In0.151Sn0.803,4.38
Tm1Ir2Rh2B4,4.38
Er0.2Y0.8Pd2Sn1,4.38
Th1Co0.9Ni0.1C2,4.38
Pd2Y0.9Yb0.1Sn1,4.37
La0.951Lu0.049,4.37
Nd1Bi1S2F0.5O0.5,4.37
Bi3.925Co0.075S3O4,4.365
In0.9Pb0.1,4.36
Zr33.3V45.5Nb21.12,4.36
Pd1Te1,4.36
Li2Pd1.5Pt1.5B1,4.36
Zr1P1.6S0.4,4.36
Bi2Pd1,4.36
Nb41.25Ta13.75Ir45,4.35
Nb81Si19,4.35
N0.99Ti1,4.35
Lu0.418Dy0.582Ni2B2C1,4.35
Rh1Se2,4.35
La1Rh1Si1,4.35
Bi2Te3,4.35
Nd1Bi1S2F0.6O0.4,4.35
Na0.3Co1H2.6O3.3,4.345
Zr25.8V51.3Nb22.9,4.34
Th1Rh4B4,4.34
La2.82Pr0.18S4,4.33
Ta1,4.33
La0.9837Ce0.0163Sn3,4.33
Lu1.9Sc0.1Fe3Si5,4.33
Ir0.75Rh0.2Te2,4.33
Pb1.2Mo6Se8,4.32
La1Fe0.98Zn0.02As1O0.85,4.32
Er1Ni1.9Fe0.1B2C1,4.31
Ta1,4.31
Lu0.6Tm0.4Ru1B2,4.31
Ce0.2Nd0.8Bi1S2F0.7O0.3,4.31
Bi3.99Ag0.01S3O4,4.31
Sn0.1Bi1.1Sb0.9Te2S1,4.31
Ta1,4.301
Nd1.85Ce0.15Cu0.994Co0.006O4,4.3
Y1Ba2Cu2.9Ni0.1O6.56,4.3
Y1Ba2Cu2.9Zn0.1O6.88,4.3
Eu1.8315Y0.0185Ce0.15Cu1O4,4.3
Y2Ba4Cu7O14.03,4.3
Na0.31Co1H2.6O3.3,4.3
Na0.3Co1H2.6O3.3,4.3
Al0.22La0.78,4.3
Rh1Zr3,4.3
Te1,4.3
B5Mo0.2Nb1.8,4.3
H0.87Pd1,4.3
Ir0.1Ti0.9,4.3
Nb0.5V1.5Zr1,4.3
Pt0.05Rh0.04Ti0.91,4.3
Ta0.15Zr0.85,4.3
V0.45Nb0.5Zr1,4.3
Hf5Re24,4.3
Ta0.05V0.095,4.3
Nb25Ti50Mo25,4.3
Lu0.4Dy0.6Ni2B2C1,4.3
Lu0.05Dy0.95Ni2B2C1,4.3
Nd1.72Ta3.28S2,4.3
Y0.15Dy0.85Ni2B2C1,4.3
Ba1Sn3,4.3
Th1Rh4B4,4.3
Er1Rh4B4,4.3
Pb1Mo6S5Se3,4.3
Ca1Ga1Si1,4.3
V0.746Sb0.179Al0.075,4.3
La2.9553Gd0.0447In1,4.3
La1Ru2,4.3
Nb0.15V0.85,4.3
Mo15Se19,4.3
Rh0.25Zr0.75,4.3
H0.64Nb0.85Pd0.15,4.3
Sr3Rh4Sn13,4.3
Sc1Fe3Si5,4.3
Dy1Rh1.6Ir2.4B4,4.3
Ba1Fe1.872Co0.042Cu0.086As2,4.3
La1Pt1Si1,4.3
Ca10Pt3.213Fe9.787As18,4.3
Ta4Pd3Te16,4.3
Sb2Te3,4.3
Sn1As0.95Se0.05,4.3
Sn1As0.93Se0.07,4.3
Nb0.97Ni0.03B2,4.3
Pr1Bi1S2F0.5O0.5,4.29
Ce0.2Nd0.8F0.7Bi1S2O0.7,4.29
Co1La3,4.28
Te1,4.28
Si1Ta1,4.28
La0.3Nd0.7Pt2.1B2.4C1.2,4.28
Rh0.106Ti0.894,4.28
Ta0.15Zr0.85,4.28
La0.92Gd0.08Sn3,4.28
Mo2Zr1,4.27
Nb2Pd1S4.5Se0.5,4.27
Sn0.6In0.4Te1,4.27
Rh0.01Zr0.99,4.26
Sm1Fe0.5Ru0.5As1F0.15O0.85,4.26
Bi3.875Co0.125S3O4,4.26
Au1Tl2,4.25
Bi1Ni1,4.25
Bi2Pd1,4.25
Bi2Rb1,4.25
Bi2Pb1,4.25
Au1Pb3,4.25
In0.92Sn0.08,4.25
Nb0.5V0.5,4.25
Ge1Mo3,4.25
La0.9Y0.1Co2B2,4.25
Nd1Bi1S2F0.7O0.3,4.25
Ba0.95Rb0.05Ti2Sb2O1,4.25
Ba0.95K0.05Ti2Sb2O1,4.25
Ba2Bi2.5Sb0.5,4.25
Ca1Si3,4.25
Bi3.875Co0.125S3O4,4.25
Mo0.16Ti0.84,4.246
Ga1Sb1,4.24
Sr1Ga0.8Si1.2,4.24
Rb0.18W1O3,4.24
Nd1Bi1S2F0.1O0.9,4.24
Ba0.9Na0.1Ti2Sb2O1,4.24
Pb0.4Sn0.4In0.2Te1,4.24
Au0.2La0.8,4.23
Nb80Si20,4.23
Mo0.2Nb0.8,4.23
Sn0.3997Pb0.4003In0.2Te1,4.23
La0.2Ce0.8Ru2,4.227
Bi3In5,4.227
La0.9916Sm0.0084,4.22
Ga25Mn14V61,4.22
Ce0.32Th0.68Ir3,4.22
Na0.28Co1H2.6O3.3,4.21
N0.62Pt0.38,4.21
Nb0.6Rh0.4,4.21
Nb0.62Pt0.38,4.21
Sn0.01V0.99,4.21
Ta1,4.21
Pb0.42Sn0.42In0.16Te1,4.21
La0.4Sm0.6Bi1S2F0.5O0.5,4.21
La1.85Sr0.15Cu0.95Ni0.05O4,4.2
La1.87Ba0.13Cu1O4,4.2
La1.65Ba0.35Cu1O4,4.2
La1.6Ba0.4Cu1O4,4.2
Y1Ba2Cu2.9Fe0.1O6.62,4.2
Na0.3Co1H2.6O3.3,4.2
Na0.35Co1H2.6O3.3,4.2
Mo1N1,4.2
La1Fe4P12,4.2
La0.2Th0.8Ni1C2,4.2
Ga1Sb1,4.2
Al1Nb2Ni1,4.2
Bi3In5,4.2
Bi1Sn1,4.2
Ga0.71V0.29,4.2
H0.11S2Ta1,4.2
Hg1Sn1,4.2
In0.913Pb0.087,4.2
K0.5Mo1O3,4.2
Nb0.925Ru0.075,4.2
Ru0.452V0.548,4.2
Re2Sc1,4.2
Nb1.2Mo1.8Al1,4.2
Bi1Pd2,4.2
C1Nb0.1Zr0.9,4.2
Cd0.97Pd0.03,4.2
Hf0.76Nb0.25,4.2
Er1Ni1.96Co0.08B2C1,4.2
Sr1Ga0.74Si1.26,4.2
Sr1Al1Si1,4.2
Y0.77Gd0.23Ni2B2C1,4.2
Y0.75Gd0.25Ni2B2C1,4.2
Zr2Co0.6Ni0.4,4.2
Sn1.1Mo6Se7.5,4.2
Mo6Se5I3,4.2
La3Ru1,4.2
Ir0.42Nb0.58,4.2
Ge1P1,4.2
Pd0.04Ta1S2,4.2
Cu0.04Ta1S2,4.2
Ba1Ga1Si1,4.2
Sr3Rh4Sn13,4.2
Tl2Mo6Se6,4.2
Ca1Ga1Si1,4.2
Bi4S2.97Se0.03O4,4.2
Ce1Ni0.8Bi2.03,4.2
Pr1Ni0.79Bi1.98,4.2
Nd1Ni0.72Bi2.14,4.2
Sm1Ni0.78Bi2.08,4.2
Gd1Ni0.72Bi1.91,4.2
Tb1Ni0.74Bi1.9,4.2
Dy1Ni0.74Bi1.78,4.2
Ce1Ni0.8Bi2,4.2
Fe1Sr2Nd1Cu2O7.54,4.2
La0.4Sm0.6Bi1S2F0.5O0.5,4.2
Nd1Bi1S2F0.5O0.5,4.2
Bi3.97Ag0.03S3O4,4.2
Bi4I4,4.2
Se1Sn1,4.2
Na0.75Co0.999Ga0.001H2.6O3.3,4.19
Cu40Sn60,4.19
Pb0.32Sn0.48In0.2Te1,4.19
Pb1.044Sn0.116Ti2Se5.16,4.19
Cr0.66Re0.34,4.19
Mo0.16Ti0.84,4.18
Cr0.152Ti0.848,4.18
La0.908Tm0.092Sn3,4.18
Bi0.1Sn0.9,4.18
Er0.76Gd0.24Rh4B4,4.18
Sn0.4197Pb0.4203In0.16Te1,4.18
Cu0.08Ti1Se2,4.18
Sr3Rh4Sn13,4.18
Hg1,4.173
Tc0.6V0.4,4.17
Nb0.6V0.4,4.17
Cu0.081Ti1Se2,4.17
Pb0.43Sn0.43In0.16Te1,4.17
Rb0.2W1O3,4.16
Hg1,4.16
Cu0.06Ta1S2,4.16
Lu1.9Y0.1Fe3Si5,4.16
Sn0.4797Pb0.3203In0.2Te1,4.16
Hg1,4.1596
Hg1,4.156
Hg1,4.154
Cu0.08Ti1Se2,4.15
Bi0.26Tl0.74,4.15
Ge0.045Nb0.955,4.15
Y2Br1.25Cl0.75C2,4.15
Mo0.059Zr0.941,4.15
Bi0.08Sn0.92,4.15
Ti0.8V0.2,4.15
Sr3Rh4Sn13,4.15
Bi3In5,4.14
Lu0.5Th0.5Os3B2,4.14
Ta0.125Zr0.875,4.14
Bi0.7Sb0.3,4.14
U0.5Th0.5Os3B2,4.14
Y1Pd2Pb1,4.13
Cu0.08Ti1Se2,4.13
Be22W1,4.12
Pd2Y0.95Tm0.05Sn1,4.12
Pd2Y0.9Tm0.1Sn1,4.12
Re10Zr90,4.12
Bi1Ru1,4.12
Mg0.85Zn0.15C1Ni3,4.12
Ba0.91Ce0.09Fe2As2,4.12
Ce0.3Th0.7Ru2,4.12
Pd0.03Ta1S2,4.12
Bi1Te1Cl1,4.12
Hg0.333In0.667,4.115
H0.9Pd1,4.11
Nb0.4V0.6,4.11
Nb0.55V0.45,4.11
Bi4S3O4,4.11
Pr0.9Ce0.1Pt4Ge12,4.11
Zr1P0.6Se1.4,4.11
La1.78Sr0.22Cu0.95Ni0.05O4,4.1
Nd0.95Pr0.05Ba2Cu3O6.6,4.1
La1Fe4P12,4.1
Ba2Sr6Si46,4.1
La1Fe1P1O1,4.1
Ta1S1.6Se0.4,4.1
C1Mo2,4.1
Lu5Ir4Si9.95Ge0.05,4.1
In1Sb1,4.1
As1Sn1,4.1
C1Ga1Mo2,4.1
C1.45Th1,4.1
Cr0.38Re0.62,4.1
In0.25Sb0.75,4.1
Ir2Zr1,4.1
La1Ru2,4.1
Mo1Na0.3S2,4.1
Pb1Tl2,4.1
Pt2Y1,4.1
Bi1In5,4.1
Be1W1,4.1
Dy1Ni1.995Co0.01B2C1,4.1
Bi3Ni1,4.1
Tl1V6S8,4.1
Be13W1,4.1
La1Pb3,4.1
Zr0.8Mo0.2,4.1
Ti0.8V0.2,4.1
Gd0.06In1La2.94,4.1
Bi0.06Sn0.94,4.1
La1Ru2P2,4.1
Cu0.02Fe0.98Se0.85,4.1
Y1Rh2Sn1,4.1
Ba1Fe1.958Pd0.042As2,4.1
Ba1Fe1.952Ni0.048As2,4.1
Li1Fe1P1,4.1
C1,4.1
In25Sb75,4.1
La0.9Y0.1Co2B2,4.1
Au0.65Pt0.35Te2,4.1
Bi3S3O2,4.1
Ce1Ni0.86Bi2,4.1
Ce1Ni0.8Bi2,4.1
Nd1Ni0.89Bi2,4.1
Y1Ni0.82Bi2,4.1
Ge0.989Rh1,4.1
Bi1La1,4.1
La1Bi1S1Se1F0.5O0.5,4.1
Na0.044Pd1Bi2,4.1
Ni0.04Ta1S2,4.095
La1Pb3,4.09
Lu0.04Zr0.96B12,4.09
Hf0.8Lu0.2P1.45S0.55,4.09
Ce1Pt0.1Ru1.9,4.08
Cr0.02V0.98,4.08
Nb1Rh1P1,4.08
Mo0.15Ti0.85,4.08
Rh16Ir1S15,4.08
Bi3Ni0.95Fe0.05,4.08
Bi0.025In0.975,4.07
La1Pb3,4.07
Pd1.1Te1,4.07
La1Ru2,4.07
H0.74Nb0.8Pd0.2,4.07
Ce0.3Nd0.7F0.5Bi1S2O0.5,4.07
Ce0.3Nd0.7Bi1S2F0.5O0.5,4.07
Bi3Ni1,4.07
Pd2Y0.9Ho0.1Sn1,4.06
Bi3Ni1,4.06
Si0.025V0.975,4.06
Ba2Bi2.25Sb0.75,4.06
Bi3Ni0.9Fe0.1,4.06
C1W2,4.05
Ge1Nb3,4.05
Ca1Al0.8Si1.2,4.05
Ca1Ga1Si1,4.05
Al0.02V0.98,4.05
Na0.3Co0.995Mn0.005H2.6O3.3,4.05
Bi3Ni1,4.05
La0.5Sm0.5Bi1S2F0.5O0.5,4.05
La1Ni0.72Bi2,4.05
Nb3Rh2,4.04
Pd2Y0.7Yb0.3Sn1,4.03
Nb0.2V0.8,4.03
Fe1U6,4.03
La0.4Th0.6Ir3,4.03
La2.9234Ce0.0766In1,4.02
C2Y1,4.02
Ba1Ti2Sb0.8Bi1.2O1,4.02
Ir0.68Rh0.27Te2,4.02
Pb0.812Sn0.348Ti2Se5.16,4.02
Bi3.85Mn0.15S3O4,4.02
Bi4S3O4,4.02
Pb1Ta1Se2,4.02
Hg1,4.017
Ru2Th1,4.01
Sn0.504Pb0.336In0.16Te1,4.01
La1.94Ba0.04Cu1O4,4
Bi2Ca2.5Gd0.5Cu2O8.33,4
La1.875Ba0.125Cu1O4,4
Y0.5Pr0.5Ba2Cu3O6.71,4
Y0.5Pr0.5Ba2Cu3O6.76,4
Y0.5Pr0.5Ba2Cu3O6.85,4
Gd1Ba1Sr1Cu3O6.77,4
Ba0.47K0.53Bi0.972Pr0.028O3,4
Sr4Ca10Cu24O41,4
Na0.29Co1H2.6O3.3,4
Na0.6Sn1Ta2S5,4
Nb2Sn1C1,4
Ca0.6Mo1S2,4
Lu4Rh6Sn19,4
Na0.65H5Sn1.16S5.16Ta2O2.5,4
La1Fe4P12,4
Na0.05Ta1S2,4
Au0.24La0.76,4
B5Nb1.9Ti0.1,4
B1Ta1,4
Bi0.4Pd0.6,4
Co0.05Rh0.04Ti0.91,4
Co0.02Sn0.98Ta3,4
Hg2Mg1,4
Ir0.05Rh0.04Ti0.91,4
O3Sr0.08W1,4
P1Sn1,4
Rh0.1Ti0.9,4
Rh0.12Ti0.88,4
Rh0.88Ti0.12,4
Ru0.45V0.55,4
N0.34Re1,4
Ca1Ir2,4
Bi0.34In0.66,4
In1Nb3,4
Nb3Si1Sn1V3,4
Na0.3Ba6.2Si46,4
Pb1Mo6Se8,4
Nb3S4,4
Tb1Re1B1C1,4
Gd1Re1B1C1,4
Zr1Ru1P1,4
Dy1Th3.4Ru0.6B4,4
Lu1Rh1.2Sn4,4
Lu4.975Sc0.025Ir4Si10,4
Ba1Ga0.78Si1.22,4
Er0.75Tb0.25Ni2B2C1,4
P1,4
Ba8Si34Ge12,4
Cu1Co2S4,4
Y0.65La0.35B6,4
Al13Os3.2Ru0.8,4
Cs0.1Li0.02W1O2.88F0.12,4
Mo0.1633Ti0.8367,4
B2.8C97.2,4
Mo5.22Zr94.78,4
In3.3Mo15Se19,4
Sr1Ti1O3,4
Se1Y1,4
Te3Zr1,4
Co1La3,4
Ga4Mn0.01Mo0.99,4
Mg0.8Zn0.2C1.05Ni3,4
Pr1Fe0.8Co0.2As1O1,4
Pr1Fe0.7Co0.3As1O1,4
La1Ni1As1F0.1O0.9,4
Fe0.98Cu0.02Se0.88,4
C1,4
Ce1Fe0.85Co0.15As1F0.1O0.9,4
Cs0.25W1O3,4
La1Co1.4Fe0.6B2,4
La1Ru2P2,4
La1.73Sr0.27Cu1O4,4
Ce1Fe1As0.7P0.3O1,4
Ce1Bi1S2F0.7O0.35,4
Pb0.4Sn0.4In0.2Te1,4
Ba8Si39Al7,4
Bi12S11O18,4
La1Ni0.65Bi2,4
Mg4Ni6B2,4
Ba1Ge3,4
La3Co2Ru2Sn13,4
Ca3Rh8B2,4
Sn1As0.97Se0.03,4
Ag1Sn0.7Bi0.3Se2,4
Lu5Rh6Sn18,4
Te5Zr1,4
Ca0.05Mo1S2,4
Ca0.06Mo1S2,4
Ta1B1,4
Li1.3K1Sr2Nb3O10,4
Y1Ba2Cu3O6.45,39.9
La1.85Sr0.15Cu1FeO4,39.9
Sr0.9La0.1Cu1O2,39.9
Y1Ba2Cu2.97Zn0.03O6.67,39.8
B2Mg1,39.8
Tl1Ba1.1La0.9Cu1O5,39.6
Y1Ba2Cu3.94Zn0.06O8,39.6
Gd0.7Pr0.3Ba2Cu3O7,39.6
B2Mg1,39.6
Eu1.3Ba1.7Cu3O7.15,39.5
B2Mg1,39.5
B2Mg1,39.4
B2Mg1,39.36
Y0.7Pr0.3Ba2Cu3O6.95,39.3
La1.84Sr0.16Cu1O4,39.3
B2Mg1,39.3
La0.5Y0.5Fe1As1O0.6,39.3
Sm1Fe0.95Ru0.05As1F0.15O0.85,39.3
Y1Ba2Cu2.85Zn0.15O6.95,39.2
Gd1Ba1.75Pr0.25Cu3O7.06,39.2
B2Mg1,39.2
Y0.8Pr0.2Sr2Cu2.85Re0.15O7,39.1
B2Mg1,39.1
La2.4Ba3.6Cu6O14.01,39
Y1Ba2Cu2.85Zn0.15O6.97,39
La1.8Sr0.2Cu1O4,39
Sr0.85Pr0.15Cu1O2,39
La1.97Sr0.03Cu1O4.06,39
La1.85Sr0.15Cu1O4.05,39
Y0.4Pr0.6Ba2Cu4O8,39
Ru1Sr1.6Ba0.4Gd1Cu2O8,39
La1.8Gd0.2Ba2Ca0.4Cu4.4O10.344,39
Dy1Ba2Cu2.7Ga0.3O6.77,39
La1.84Sr0.16Cu1O4,39
Ru0.9Sn0.1Sr2Gd1Cu2O8,39
Ru0.7Sn0.3Sr2Gd1Cu2O8,39
Pb0.5Cd0.5Sr1.8Eu1.6Ce0.6Cu2O9,39
B2Mg1,39
Ca1.8Cu1Cl2O2,39
Ru1Sr2Gd1Cu2O8,39
Mg0.7Be0.3B2,39
Mg0.98Sc0.02B2,39
La1.85Sr0.15Cu0.996Zn0.004O4,39
Sm1Fe1As1F0.05O0.95,39
Fe2As2Ca5Mg0.8Ti3.2O9.8,39
Ba0.63K0.37Fe2As2,39
Ba0.64K0.34Fe2As2,39
Ca0.82La0.18Fe1As1.99P0.01,39
Ba0.8Fe2Se2,39
Ba0.6K0.4Fe2As2,39
B2Mg1,38.9
Sm1Fe1As1F0.1O0.9,38.9
Ba0.66K0.34Fe2As2,38.9
B2Mg1,38.81
Eu0.7Pr0.3Ba2Cu3O6.95,38.8
La1.25Ca0.1Ba1.65Cu3O7.06,38.8
Bi1.8Pb0.2Sr2Ca1Cu1.88Co0.12O8,38.8
Tl1Ba1.3La0.7Cu1O5,38.8
B2Mg1,38.8
La0.6Y0.4Fe1As1O0.6,38.8
B2Mg1,38.73
Y1Ba2Cu2.97Zn0.03O6.59,38.7
Yb0.5Pr0.5Ba2Cu3O6.67,38.7
Y0.9Pr0.1Ba2Cu3O6.5,38.7
Pb0.5Cu0.5Sr0.8La1.2Cu1O5.01,38.7
La1.83Sr0.17Cu1O4,38.7
B2Mg1,38.7
Mg0.99Co0.01B2,38.7
La1.25Ca0.05Ba1.7Cu3O7.03,38.6
Sr0.95Y0.05Cu1O2,38.6
Sr0.8Y0.2Cu1O2,38.6
Sr0.75Y0.25Cu1O2,38.6
Y1Ba2Cu3.84Fe0.16O8,38.6
B2Mg1,38.6
Mg0.99Ti0.01B2,38.6
Mg0.9Cu0.1B2,38.6
Mg0.8Cu0.2B2,38.6
Li0.8Fe1.2Se0.84S0.16H1O1,38.6
Ba0.61K0.39Fe2As2,38.6
Tl0.7La1Sr1Cu1O5,38.5
Pb0.5Cu0.5Sr0.9La1.1Cu1O5.02,38.5
B2Mg1,38.5
Mg0.95Ti0.05B2,38.5
Mg0.95Zn0.025Al0.025B2,38.5
Mg0.9Zn0.05Al0.05B2,38.5
Mg1B1.9906C0.0094,38.5
Ba0.68K0.32Fe2As2,38.5
Sm1Ba2Cu3O6.75,38.4
Tl1Ba1.1La0.9Cu1O5,38.4
Y1Ba2Cu2.82Zn0.18O7,38.4
B2Mg1,38.4
Mg0.9Zn0.1B2,38.4
Mg0.8Zn0.2B2,38.4
Mg1B1.98C0.02,38.4
Mg1B1.96C0.04,38.4
B2Mg0.98,38.4
Y1Ba1.5La0.5Cu3O7.19,38.3
Sm0.8Pr0.2Ba2Cu3O6.95,38.3
B2Mg1,38.3
Mg0.9Ti0.1B2,38.3
Mg0.95Zn0.05B2,38.3
Mg1B1.92C0.08,38.3
La1.86Sr0.14Cu0.99Li0.01O4,38.25
Mg0.95Li0.05B2,38.25
Ru0.8Sn0.2Sr2Gd1Cu2O8,38.2
B2Mg1,38.2
B2Mg0.9,38.2
Mg0.95Li0.025Al0.025B2,38.2
Ce1Fe1As1F0.1O0.9,38.2
Mg0.99Fe0.01B2,38.2
B2Mg1,38.14
Mg0.996Cu0.004B2,38.11
B2Mg1,38.1
Ba0.6K0.4Fe2As2,38.1
Mg0.989Cu0.011B2,38.05
Y1Ba1.5La0.5Cu3O7.08,38
Tl2Ba2Cu1O5.957,38
Nd1.4Ba1.6Cu3O7.09,38
La1.8Sr0.2Ca1Cu2O6,38
Sr0.95Nd0.05Cu1O2,38
La1.84Sr0.16Cu1O4,38
Sm1.2Ba1.8Cu3O7.09,38
La1.3Ba1.2Sr0.5Cu3O6.955,38
Y0.6Pr0.4Ba2Cu3O6.65,38
Sr1.5Ba0.5Y1Cu2.8Ga0.2O7,38
Y0.9Ce0.1Ba2Cu4O8,38
Eu1.5Ce0.5Ru1Sr2Cu2O10,38
Ca0.4La1.25Ba1.35Cu3O6.99,38
Ca0.1La1.25Ba1.65Cu3O7.06,38
Nd1Ba2Cu2.9Ga0.1O6.61,38
La2Cu1O4.066,38
Tl1Ba1.4La0.6Cu1O5,38
Tl1Sr2Ca0.2Pr0.8Cu2O7,38
Y1Ba2Cu2.961Zn0.039O6.7,38
Sr0.9La0.1Cu0.97Zn0.03O2,38
Ru1Sr2Gd1Cu2O8,38
Ca2Cu1Cl2.4O2,38
Ca2Cu1Cl2.5O2,38
Ga1Sr2Y0.6Ca0.4Cu2O7,38
B2Mg1,38
Mg0.99Al0.01B2,38
Ru0.98Ir0.02Sr2Gd1Cu2O8,38
Mg0.97Na0.03B2,38
Mg0.93Na0.07B2,38
Mg0.85Na0.15B2,38
Mg0.8Na0.2B2,38
B2Mg0.8,38
Mg1B1.95C0.05,38
Sr2Ca3Cu4F2O8.6,38
Mg0.92Li0.08B2,38
Ba0.6K0.4Fe2As2,38
Sr0.6K0.4Fe2As2,38
Sr1Fe2As2,38
La0.3Y0.7Fe1As1F0.15O0.85,38
C0.9S0.1,38
La0.62Dy0.38Fe1As1F0.175O0.825,38
Nd1Fe0.99Mn0.01As1F0.11O0.89,38
Ca10Fe8.2Pt4.8As18,38
Ca10Pt4Fe10As18,38
Ce1Fe1As1F0.1O0.9,38
La1Fe1As1H0.3O0.7,38
Cs3C60,38
Sr0.8Fe2Se2,38
Ba0.65K0.35Fe2As2,38
Ba0.663K0.337Fe2As2,38
La1.85Sr0.15Cu1O3.98,37.9
Y1Ba1.78La0.22Cu4O8,37.9
Fe0.5Ba1Sr1Dy1Cu2.5O7.447,37.9
Mg0.99Al0.01B2,37.9
Mg1B1.958C0.042,37.9
B2Mg1,37.9
Mg0.997Fe0.003B2,37.9
Pb0.6Cu0.4Sr1La1Cu1O5.06,37.8
Eu0.6Pr0.4Ba2Cu3O7,37.8
La2Cu1O4.095,37.8
Ru0.925Sn0.075Sr2Gd1Cu2O8,37.8
Mg0.93Li0.07B2,37.8
B2Mg1,37.8
Mg0.9Li0.1B2,37.8
Mg0.8Ti0.2B2,37.8
Mg0.982Cu0.018B2,37.8
Mg1B1.94C0.06,37.8
Mg0.9Al0.05Li0.05B2,37.8
Mg0.9Al0.1B2,37.8
Mg0.9Li0.05Al0.05B2,37.8
Ba0.6K0.4Fe2As2,37.8
Ca0.8La0.2Fe0.978Co0.022As2,37.8
Rb1Eu1Fe4As4,37.8
Ba0.5K0.5Fe2As2,37.78
Ba0.6K0.4Fe2As2,37.76
Gd1Sr2Ru0.9Cu2.1O8,37.75
Mg0.95Cu0.05B2,37.75
Bi4Sr4Ca1Tm1Cu4O16.67,37.7
La2Cu1O4,37.7
Pb0.5Cu0.5Sr0.9La1.1Cu1O5.08,37.7
Mg0.997Fe0.003B2,37.7
Mg0.95Zr0.05B2,37.7
Sr0.5K0.5Fe2As2,37.7
Mg1.995Mn0.005B2,37.7
Tl1Sr2Ca0.5Sm0.5Cu2O6.75,37.6
Pb0.6Cu0.4Sr1La1Cu1O5.05,37.6
Pb0.6Cu0.4Sr0.9La1.1Cu1O5.06,37.6
La1.847Sr0.153Cu1O4,37.6
Mg0.4Ti0.6B2,37.6
B2Mg1,37.6