formula,Tc
Sm1La0.75Sr0.25Cu1O3.95,20
Nd1.5Ba1.5Cu3O7.14,20
Bi2Sr2Y1.64Ce0.36Cu2O10.22,20
Nd1.85Ce0.15Cu1O3.97,20
Nd1.85Ce0.15Cu1O4,20
Nd1.75La0.1Ce0.15Cu1O4,20
C60K3,20
Bi2Sr1.6La0.4Cu1O6.35,20
Nd1.5Ce0.5Sr2Cu2Nb1O10,20
Sm1.85Ce0.15Cu1O4,20
Y0.9Ca0.1Sr2Cu2.5Fe0.5O6.9,20
Ba0.55K0.45Bi1O3,20
La1.935K0.065Cu1O4,20
Sr1.5K0.5Cu1C1O5,20
Sr1.3K0.7Cu1C1O5,20
Hg1Ba2Cu1O4.025,20
Pr185Ce0.15Cu1O4,20
Sr0.7Ba1.3Y1Cu2.8Al0.2O7.11,20
Sr1Ba1Y1Cu2.8Al0.2O7.15,20
Ca1La1Ba1Cu2.91Zn0.09O7,20
Y0.3Pr0.7Ba2Cu4O8,20
La1.85Ca0.082Ba0.068Cu1O4,20
Ba0.5K0.5Bi1O3,20
Nd1.8315Y0.0185Ce0.15Cu1O4,20
La1.65Nd0.2Sr0.15Cu1O4,20
Ho1Ba2Cu2.94O6.48,20
La1.775Sr0.225Cu1O4,20
La1.76Sr0.24Cu1O4,20
Tl1Ba0.6Sr0.4La1Cu1O5,20
Nd1.85Ce0.15Cu0.999Ni0.001O4,20
Y1Ba2Cu2.94Zn0.06O6.63,20
Y1Ba2Cu2.94Zn0.06O6.68,20
Y1Ba2Cu2.91Zn0.09O6.7,20
Y1Ba2Cu2.79Zn0.21O6.95,20
Lu0.5Pr0.5Ba1.7Sr0.3Cu3O6.92,20
La1.3Ba1.5Ca0.2Cu3O6.7,20
La1.85Sr0.15Cu1O3.993,20
La1.78Sr0.22Cu0.9975Zn0.0025O4,20
La1.79Sr0.21Cu0.995Zn0.005O4,20
La1.78Sr0.22Cu0.995Zn0.005O4,20
La1.805Sr0.195Cu0.99Zn0.01O4,20
La1.79Sr0.21Cu0.99Zn0.01O4,20
Y1Ba2Cu2.931Zn0.069O6.6,20
Y1Ba2Cu2.919Zn0.081O6.75,20
Bi2Sr1.34La0.66Cu1O6,20
La1.85Sr0.15Cu0.98Zn0.02O4,20
La1.91Ca0.09Cu1O4,20
Pr1.85Ce0.15Cu1O3.97,20
La1.85Sr0.15Cu0.985Zn0.015O4,20
La1.9Sr0.1Cu0.95Li0.05O4,20
Y1Ba2Cu3O6.45,20
Ru0.7Sn0.3Sr2Eu1Cu2O8,20
La1.87Ce0.13Cu1O4,20
Y1Ba2Cu3O6.35,20
Pr1.85Ce0.15Cu1O4,20
Nb3Al0.95Ge0.05,20
Nb3Al0.94Ge0.06,20
Nb3Al0.93Ge0.07,20
Nb0.75Al0.1875Ge0.0625,20
Nb0.75Al0.19Ge0.06,20
Nb0.75Al0.2Ge0.05,20
Nb0.75Al0.21Ge0.04,20
Ga0.25Nb0.75,20
Li1,20
Mg1B1.85C0.15,20
Li0.37Hf1N1Cl1,20
Sr0.6K0.4Fe2As2,20
La1.9Ca0.1Cu1O4,20
Li1.1Fe1As1,20
La0.87Sr0.13Fe1As1O1,20
Ba1Fe1.8Co0.2As2,20
Sr2V1Fe1As1O2.5,20
La1Fe1As1F0.15O0.85,20
Ca0.5Na0.5Fe2As2,20
Sm1Fe1As0.5P0.5O1,20
Ca1.867Na0.133Cu1Cl2O2,20
Ba1Fe1.83Zn0.04Co0.13As2,20
Ba1Fe1.87Zn0.02Co0.11As2,20
K0.8Fe1.996Cr0.004Se2,20
Ba0.3K0.7Fe2As2,20
Ba1Fe1.906Co0.094As2,20
Ba1Fe1.9Ni0.1As2,20
Ca0.9Pr0.1Fe1.3As1.8O0.2,20
Ca0.9Pr0.1Fe1As2,20
K0.5Na0.24Fe1.52Se2,20
Ba0.9Yb0.1Fe2As2,20
Tl2Ba2Cu1O6,20
La1Fe1As1F0.05O0.95,20
Ba1Fe1.3Ru0.7As2,20
Ca1Fe2As1.86P0.14,20
La1Fe1As0.9P0.1H0.3O0.3,20
La1.8Eu0.2Cu1O3.5,20
Sr2V1Fe1As1O2.75,20
Na0.75Co0.995Ga0.005H2.6O3.3,2.99
La1Ni1C2,2.99
Bi3.975Cu0.025S3O4,2.99
Bi3.9Cu0.1S3O4,2.99
Pd0.04Ir0.96Te2,2.99
La1F0.5Bi1S1.4Se0.6O0.5,2.99
Ni18Zr82,2.98
In0.69Tl0.31,2.98
Y0.3Lu0.7Ir4B4,2.98
Sr1Ga0.6Si1.4,2.98
La1Ni1As1O1,2.98
Sn0.704Pb0.176In0.12Te1,2.98
Ce0.6Nd0.4F0.5Bi1S2O0.5,2.98
Th1Pt1Si1,2.98
Te2Ti1,2.98
La1Fe1P1F0.14O0.86,2.98
Ba0.47K0.53Bi0.965Pr0.035O3,2.97
Mo0.9Re0.1,2.97
Pb1Te1Sn1Te1,2.97
In0.1Tl0.9,2.97
Au1V3,2.97
Os0.025Zr0.975,2.97
Sn0.8In0.2Te1,2.97
Pd1Zr3,2.96
S3Sn1Ta1,2.96
Lu1Ni1B1C1,2.96
Ce1Bi1S2F0.6O0.4,2.96
Sr1Pd1.98Pt0.02Ge2,2.96
Y2Ir3Si5,2.96
Sr0.4La0.6Bi1S2F1,2.96
Te3Zr1,2.95
Cu0.1Ti2Se2,2.95
Mo0.91Ti0.09,2.95
Pb2Pd1,2.95
Mo0.913Ti0.087,2.95
Mo0.913Ti0.037,2.95
Si0.05V0.95,2.95
H0.87Pd1,2.95
Pd0.95Ni0.05H0.9,2.95
Cu0.1Bi2Se3,2.95
Th1Co1Si1,2.95
Se2Ta1.08,2.95
Ir0.96Pt0.04Te2,2.945
Ni24Zr76,2.94
Lu1Ni0.9V0.1B1C1,2.94
Zr0.87Ge0.13,2.94
Bi0.5Sb0.5,2.94
Lu0.55Tm0.45Ru1B2,2.94
Rh3Bi14,2.94
Eu1Sr2Bi2S2Se2F4,2.94
Cr0.06V0.94,2.93
Th1Ir0.2Os1.8,2.93
Ba1Pb0.5Hg0.25Bi0.25O3,2.93
La0.9Sm0.1Bi1S2F0.5O0.5,2.93
Ni29Zr71,2.92
Sc0.25Y0.75Ir3.6Rh0.4B4,2.92
Hf0.654Mo0.346,2.92
Nb0.25V0.75N0.94,2.92
Ru0.43V0.57,2.92
Mo0.9Re0.1,2.92
Sr1Pd1.8Rh0.2Ge2,2.92
Ce1Bi1S2F0.7O0.3,2.92
Bi2S2F0.1O0.9,2.92
Ir0.95Pt0.05Te2,2.92
La1Ni1C2,2.92
Ba1Pb0.9Bi0.1O3,2.91
Pd20Zr80,2.91
Nd1Pt2.1B2.4C1.2,2.91
Ba1Pd0.2Si1.8,2.91
Lu1Ni1B0.9C1.1,2.9
Ca1Cu0.25Si1.55,2.9
La1Ni1C2,2.9
Ba8Si42Cu4,2.9
C1Os2W3,2.9
Ga7Pt3,2.9
Rh0.91Ti0.4V0.05,2.9
V2.7Ru0.3Si1,2.9
Nb2.01V0.99Au1,2.9
Ga0.7Pt0.3,2.9
N0.82V1,2.9
Si1V2.7Ru0.3,2.9
Ta0.05Ti0.95,2.9
Lu1Ni1.81Co0.38B2C1,2.9
C0.78W0.22Si1,2.9
Sn1Ta1S3,2.9
Lu1Ni1B1C1,2.9
Ga1Nb4Se8,2.9
Au1V3,2.9
Os2Zr1,2.9
Y1.968Lu0.032Fe3Si5,2.9
La0.9985Tb0.0015Al2,2.9
La1Al1.995Si0.005,2.9
C1,2.9
Pd2Hf0.5Y0.5Al1,2.9
Ba1Al1Sn1,2.9
Ni2Nb1Sn1,2.9
Pb1.12Nb2Se5.12,2.9
Lu1Rh2Sn1,2.9
Y1Fe2Si2,2.9
Bi2Te3,2.9
Zr1Ru0.9Rh0.1P1,2.9
K0.9Na0.1Fe2As2,2.9
Mg1Pt0.5Au0.5Si1,2.9
Cs1Pb0.3Bi3.7Te6,2.9
Ce1Bi3.7Pb0.3Te6,2.9
Ce1Bi3.3Pb0.7Te6,2.9
Ce1Bi3.2Pb0.8Te6,2.9
Ba1Pd0.3Si1.7,2.9
Nd1Fe1P1F0.1O0.9,2.9
Nb1Bi2Se3,2.9
C1.36Pb5Bi12Se23,2.9
Sr0.5Ce0.5F1Bi1S1Se1,2.9
Ba1Pt1As1,2.895
Rb0.33W1O3,2.89
Co1Sc0.125Zr1.875,2.89
Ir3Lu1,2.89
Hf0.8Mo0.2,2.89
Sr1Pd1.9Pt0.1Ge2,2.89
La0.995Y0.005Fe0.995Mn0.005As1F0.11O0.89,2.89
Ba2Ti2Fe1.88Cr0.12As4O1,2.89
Pd22Zr78,2.88
Ba1Ta2S5,2.88
Mn1U6,2.88
Pt1V3,2.87
Sn0.02V0.98,2.87
Th1Ir1.6Ru0.4,2.87
Th1Ir0.6Ru1.4,2.87
Th1Ir0.4Ru1.6,2.87
Ni2Zr1Ga1,2.87
Sr0.1Bi2Se3,2.87
Sr0.8Ba0.2Ni2P2,2.87
La3Co4Sn13,2.87
La1Pd0.8Bi2,2.865
Y2Dy3Os4Ge10,2.86
Rh37Zr63,2.86
Nb0.5Os0.5,2.86
Nb1Os1,2.86
U6Mn0.5Fe0.5,2.86
Cu1Rh1.9Sn0.1Se4,2.86
Hf1Pd2In1,2.86
Li2Pt3B0.99Al0.01,2.86
La1Ni1C2,2.86
Ir0.98Pt0.02Te2,2.855
Sn1.15Ta1S3.15,2.85
Nb1S3Sn1,2.85
Sb0.7Sn0.3,2.85
Y2Br0.25Cl1.75C2,2.85
Ta0.92W0.08,2.85
Bi14Rh3,2.85
In2Mo6Se6,2.85
Y3Ru4Ge13,2.85
La0.85Th0.15Bi1S2O1,2.85
La3Co4Sn13,2.85
Ce1Bi1S2F0.4O0.6,2.85
Pb0.18Sn0.74In0.08Te1,2.85
Cu0.05Ir1Te2,2.85
Bi2Te3,2.845
Pd23Zr77,2.84
Bi1Zr3,2.84
Si0.4W0.6,2.84
Si2W3,2.84
Lu4.5Tm0.5Ir4Si10,2.84
Co0.032Ti0.968,2.84
Ti0.99Nb2.01Sb1,2.84
Ba1Ni2Ge0.4P1.6,2.84
Cu0.05Ir1Te2,2.84
Pb0.184Sn0.736In0.08Te1,2.84
Ir0.95Pt0.05Te2,2.84
Sr0.1Bi2Se3,2.84
Sr0.6Ba0.4Ni2P2,2.84
Th1Si1Co1,2.84
Al0.06V0.94,2.83
Tl1Ni2Se1.8S0.2,2.83
Mg0.8Zn0.2C1Ni3,2.82
Pd2Tm1Sn1,2.82
Y0.8Ca0.2C2,2.82
La1Rh3B2,2.82
Cu1Co1.98Rh0.02S4,2.82
Y2Pd1Ge3,2.82
Dy1Rh2.8Ir1.2B4,2.82
La1Pt0.8Ni0.2Si1,2.82
Sr1Pd1.99Pt0.01Ge2,2.82
Ir0.43Rh0.52Te2,2.82
Sn0.736Pb0.184In0.08Te1,2.82
La0.9Ce0.1Ir3,2.82
H0.12Ta0.88,2.81
Sn0.8075Pb0.1425In0.05Te1,2.81
Sr0.5Ce0.5F1Bi1S2,2.81
La1.85Sr0.15Cu0.973Zn0.027O4,2.8
La1.94Sr0.06Cu1O4,2.8
Sr0.2Ta1S2,2.8
Na0.38Co1H2.6O3.3,2.8
Pd2Y0.85Dy0.15Sn1,2.8
Pd2Yb1Pb1,2.8
C1Mo2,2.8
Ba1Al0.95Si1.05,2.8
Cd1C1Ni3,2.8
Cs0.5Nb1S2,2.8
Be30Zr70,2.8
In1.1Te1,2.8
Al1Sb1,2.8
Bi2Te3,2.8
C0.42Mo1,2.8
Fe0.5Mn0.5U6,2.8
In0.11O3W1,2.8
Mo0.93Pt0.17,2.8
Nb0.9Rh0.1,2.8
Nb0.9Ru0.1,2.8
Pb0.8Pt0.2,2.8
Sn0.25Ta0.25V0.5,2.8
Ta0.25V0.75,2.8
B1Zr1,2.8
B1Re2,2.8
Pb4Pt1,2.8
V2Ta1Sn1,2.8
Nb3Rh0.9Pt0.1,2.8
Sn1Ta1V2,2.8
La1Ru4Sb12,2.8
Cu0.7Zn0.3Ir2S4,2.8
Zn1Mo6S8,2.8
Cu0.65Zn0.35Ir2S4,2.8
Ca1Tl1.8Pb1.2,2.8
Ba8Si25Ge21,2.8
Mo0.0708Ti0.9292,2.8
Pd0.985Ni0.015H0.79,2.8
Mg1C1Ni2.7Ru0.3,2.8
Ta1V2,2.8
La3Co4Ge13,2.8
Ru7B3,2.8
Nb6Sn5,2.8
La1.79Sr0.21Cu0.94Fe0.06O4,2.8
Sr1Ir2As2,2.8
Ni2As2Sr4Sc2O6,2.8
Sr1Si1.7Ni0.3,2.8
Lu1Pd2Sn1,2.8
Lu1.96Sc0.04Ir3Si5,2.8
Sr0.5La0.5F1Bi1S2,2.8
La1Pd0.6Ge0.14,2.8
Sr0.5Ce0.5Bi1S2F1,2.8
Sr0.5La0.5Bi1S2F1,2.8
Ce1Bi3.1Pb0.9Te6,2.8
Pd0.4Ho1Te3,2.8
Cu0.05Ir1Te1.8Se0.2,2.8
La1Ni1C2,2.8
Y3Ru4Ge13,2.8
Ba1Pt1As1,2.8
K0.6Mo1S2,2.8
Zr4Rh2O0.7,2.8
Zr5Ge2.5Pt0.5,2.8
Pb1.6Bi0.4Pd1,2.8
K1Mo15Se19,2.8
Nb3Rh1,2.797
Nb3Rh1,2.79
Cu1Co1.98Ir0.02S4,2.79
Hf0.834W0.166,2.79
Lu5Rh4Ge10,2.79
Al1Gd0.0065La3,2.79
Tm0.8Lu0.2Fe3Si5,2.79
La0.95Y0.05Ni1C2,2.79
K1Fe2As2,2.79
Ba1Ag0.4Si1.6,2.79
La0.2Ce0.8Ir3,2.79
C1Mo2,2.78
Zr54.6Ti23.4Ni22,2.78
Ag1Bi1,2.78
Sr0.67Pt3B2,2.78
Ta0.91W0.09,2.78
Au0.12Zr0.88,2.78
Au0.1Zr0.9,2.78
La0.999Gd0.001Al2,2.78
Lu2Fe3Si5,2.78
Bi2Pd1,2.78
La1Pt0.7Ni0.3Si1,2.775
Y1Ir2Si2,2.775
Pd2Y0.6Er0.4Sn1,2.77
Ni1Zr2,2.77
Hf0.78W0.22,2.77
Re0.05Ta0.95,2.77
Ce1Bi1S2F0.4O0.6,2.77
Sn0.7598Pb0.1902In0.05Te1,2.77
P1W3,2.76
In0.62Tl0.38,2.76
La0.95Nd0.05Pt1Si1,2.76
Y5Ir4Ge10,2.76
Sr1Pd2Si0.02Ge1.98,2.76
Nb2Pd1S4Se1,2.76
Pb0.19Sn0.76In0.05Te1,2.76
Sr0.5Ba0.5Ni2P2,2.76
La3Pd4Ge4,2.75
Bi4Rh1,2.75
Sn1.17Nb1S3.17,2.75
Ta1S1.8Se0.2,2.75
Mg0.47Tl0.53,2.75
Sr1Ta2S5,2.75
Sn1Nb1S3,2.75
Y1.9Dy0.1Fe3Si5,2.75
Th1Ir0.1Si1.9,2.75
La1Ni1As1O1,2.75
Eu1,2.75
Fe1Se0.5S0.5,2.75
La1Bi1S2F0.5O0.5,2.75
Ru2Y1,2.75
Cr0.74Re0.26,2.75
Ta1S2,2.75
C1W2,2.74
Al0.964Ge0.036,2.74
Lu4.5Er0.5Ir4Si10,2.74
La0.39Ce0.61Ir3,2.74
Au1V3,2.731
B2Nb1,2.73
Nb0.9Mo2.1Al1,2.73
La0.97Gd0.03Ru2,2.73
Ta0.5V0.5,2.73
Pb1.14Nb1S3.14,2.72
Mg1Mo6S7,2.72
Sm1Rh4B4,2.72
Y1Ir2Si2,2.72
Sr1Pd2Si0.04Ge1.96,2.72
Pr0.55Eu0.45Pt4Ge12,2.72
Eu3Bi2S2.5Se1.5F4,2.72
Li0.62Rb1Ca2Nb3O10,2.71
Na0.26Co1H2.6O3.3,2.71
La2.9451Gd0.0549In1,2.71
Hf0.906Mo0.094,2.71
Cu0.1Ta1S2,2.71
Cu0.07Ir1Te2,2.71
Cu0.125Ir1Te1.7Se0.3,2.71
Li0.69Fe1.31S1H1O1,2.71
Sr2Ru1O4,2.7
Li0.62Rb1Ca2Nb3O10,2.7
Bi1.08Ta2S5.08,2.7
K1Tl1.5C4,2.7
In0.95Te1,2.7
Bi1.08S5.08Ta2,2.7
Au1Ge1,2.7
Bi0.8Rh0.2,2.7
Cu1Rh1.95Se4Sn0.05,2.7
Mn0.67Ni0.33U6,2.7
Nb0.375Rh0.625,2.7
Rh1Zr1,2.7
Ti0.96V0.04,2.7
Nb0.75Rh1.25,2.7
Nb3Rh0.9Au0.1,2.7
La1Ni1C2,2.7
Sm1Rh4B4,2.7
Ce1Te1.82,2.7
Y1,2.7
As1,2.7
Cu1Co1.8Cr0.2S4,2.7
Ti0.36V0.54Al0.1,2.7
Y1Ir1Si1,2.7
Y2Rh3Si5,2.7
Sr1Ti1O3,2.7
Co7Y9,2.7
Th0.3Zr0.7,2.7
Tc0.25Ti0.75,2.7
La0.8Y0.2,2.7
Re1Ge2,2.7
Pb0.06Tl0.94,2.7
Ga0.1Nb1Se2,2.7
Ni2As2Sr4Sc2O6,2.7
Sr1Pd2Ge2,2.7
Si3W5,2.7
Zr55Cu30Al10Ni5,2.7
La3Co4Sn13,2.7
In1N1,2.7
La1Bi1S2F0.5O0.5,2.7
Sr1Pd2Si0.1Ge1.9,2.7
La1Pd1Sb2,2.7
Sr0.5Ce0.5F1Bi1S2,2.7
Cs1Pb1Bi3Te6,2.7
Ce1Bi3Pb1Te6,2.7
Bi2.14F0.27S2O0.73,2.7
Pd0.03Ir0.97Te2,2.7
Th1Si1.075Co0.925,2.7
Cu1.5Pb5Bi6Se23,2.7
Nb1Os2,2.7
Sr0.5Ce0.5F1Bi1S1.5Se0.5,2.7
Re30Zr70,2.69
Hf1Os2,2.69
La2.58Pr0.42S4,2.69
Sr2Ru1O4,2.69
Ir0.94Pt0.06Te2,2.69
Cr0.74Re0.26,2.69
Cu0.1Ti1Se2,2.68
Nb1Sn2,2.68
C1,2.68
Y2Pd0.9Pt0.1Ge3,2.68
Au1.3Pd0.7In1Y1,2.68
Zn0.025In2O3,2.68
Ce1Bi1S2F0.7O0.3,2.68
Ce1F0.7Bi1S2O0.7,2.68
Pr1Pt4Ge11Sb1,2.68
Pd0.03Ir1Te2,2.68
Eu0.5Ce0.5F1Bi1S1.8Se0.2,2.68
Co35.38Zr64.62,2.67
Ag1Tl1,2.67
Ag0.03Tl0.97,2.67
Lu1Ir3.6Rh0.4B4,2.67
Mo0.3Nb0.7,2.67
Cd1Mo5S6,2.67
Sc1Mo6S7,2.67
Am0.01Si2Th1,2.66
Nb1Pb1S3,2.66
Pb2Rh1,2.66
Pb1Nb1S3,2.66
Lu1Os1B2,2.66
Y1Mo6S7,2.66
Sm1Rh4B4,2.66
Pd34Se11,2.66
Pb0.2375Sn0.7125In0.05Te1,2.66
Nd0.02La0.98Ni1C2,2.66
La1.48Nd0.4Sr0.12Cu1O4,2.65
Na0.34Co1H2.6O3.3,2.65
Ta0.75V0.25,2.65
Nb1Ru1Si1,2.65
Fe0.1Ni0.9Zr2,2.65
Bi1.09Ta2S5.09,2.65
La1Pd1Si3,2.65
La1Bi1S2F0.5O0.5,2.65
Th1Co1C2,2.65
Tl1Ni2Se1.6S0.4,2.65
Sr0.5Ce0.5F1Bi1S1.5Se0.5,2.65
Ni29Zr71,2.64
Au1Be1,2.64
Nb3Rh1,2.64
Sb0.02Sn0.98,2.64
Au1.6Pd0.4In1Y1,2.64
Sr1Pd1.98Ag0.02Ge2,2.64
La0.85Th0.15Bi1S2O1,2.64
Sb0.03V0.97,2.63
Pt1V3,2.63
La1Pt0.6Ni0.4Si1,2.63
C1,2.62
Y5Ir4Si10,2.62
Y2Pd0.8Pt0.2Ge3,2.62
Sr1Pd1.9Ag0.1Ge2,2.62
Sn0.7127Pb0.2373In0.05Te1,2.62
La0.9Th0.1Ru2,2.62
Cu0.6Zn0.4Ir2S4,2.61
La0.23Th0.77Pb3,2.61
Cu1Co1.99Rh0.01S4,2.61
Co0.03Zr0.97,2.61
Co0.02V0.98,2.61
Tm4Y1Rh6Sn18,2.61
Ir0.9Rh0.1Te2,2.61
Lu1Ni1B0.9C1,2.6
Lu1Ni1B0.8C1,2.6
Na0.32Co1H2.6O3.3,2.6
Be35Zr65,2.6
Pd27Zr73,2.6
Ni33Zr67,2.6
In1.15Te1,2.6
Ag1Te3,2.6
Al2Th3,2.6
Au0.3Pd0.033Te0.666,2.6
Ce0.02La0.98,2.6
Ce0.8Tb0.2Ru2,2.6
Ir1Os1Y1,2.6
La1Rh3,2.6
Mo0.25Ru0.75,2.6
Rh0.06Ti0.94,2.6
Y1Ir1Os1,2.6
Nb1Sn2,2.6
Na1.5Ba6Si46,2.6
Lu1Ni0.8V0.2B1C1,2.6
Lu1Ni1.8Co0.4B2C1,2.6
Er1Ni1.955Co0.09B2C1,2.6
La7Rh3,2.6
Cu0.6Zn0.4Ir2S4,2.6
Rb0.23W1O3,2.6
Mo0.94Fe0.06Ga4,2.6
Ge2Lu1,2.6
Lu5Ir4Ge10,2.6
Li2Mo15Se19,2.6
Y1Ir2Si2,2.6
Hf0.87Mo0.13,2.6
La3Ir4Sn13,2.6
Th3Ir4Sn13,2.6
Li2Pt3B1,2.6
Tm4Os4Si13,2.6
La1Pd1Si3,2.6
Cs1Fe2As2,2.6
Y3Pt4Ge6,2.6
Sr1Ga1Ge1,2.6
Rb1Fe2As2,2.6
Yb1Ga1.15Si0.85,2.6
Tl2Mo6Se6,2.6
Zr1Ru0.8Fe0.2P1,2.6
Sr1Si1.8Ni0.2,2.6
Sr1Pd2Ge2,2.6
La1Ni2P2,2.6
Sr1Pd1.86Pt0.14Ge2,2.6
Bi3.95Cu0.05S3O4,2.6
Au30Pd3.3Te66.6,2.6
Ca1Al1Si1,2.6
La1Bi1Se2F0.5O0.5,2.6
Ba1Pt0.3Si1.7,2.6
Sr0.065Bi2Se3,2.6
Cu0.1Ir1Te2,2.6
Na1Fe0.963Cu0.037As1,2.6
Bi0.8Pb0.2Pd1,2.6
Zr5Ge2.8Pt0.2,2.6
Sr0.5Ce0.5F1Bi1S1.7Se0.3,2.6
Er0.6Y0.4Pd2Sn1,2.59
Ba1Ni2Ge0.2P1.8,2.59
Ba1Ti2Sb1.4Bi0.6O1,2.59
Bi3.95Cu0.05S3O4,2.59
La98Lu1.15Tb0.85,2.582
Ni30Zr70,2.58
B3Ru7,2.58
La7Rh3,2.58
B0.3Ru0.7,2.58
Sr1Ga0.65Si1.35,2.58
La0.9Pr0.1Pb3,2.58
Th0.1Zr0.9,2.58
Sr1Pd1.94Co0.06Ge2,2.58
Eu2Sr1Bi2S2Se2F4,2.575
Sn0.768Pb0.192In0.04Te1,2.57
Nb0.05Bi2Se3,2.57
K1Tl1.5C4,2.56
Ce0.02La0.98,2.56
Pd1Te1.02,2.56
La0.94Nd0.06Pt1Si1,2.56
Li2Pt3B1,2.56
Ge4Rh1,2.56
Co0.5Mn0.5U6,2.55
Mn0.14Ti0.86,2.55
Nb3Rh0.9Pd0.1,2.55
Pr1Mo6S8,2.55
Ba1Ni2P2,2.55
Rb1Fe2As2,2.55
Ce1Au2Si2,2.55
Sr0.3Ba0.7Ni2P2,2.55
La1F0.5Bi0.98S2Sb0.02O0.5,2.55
Be22Mo1,2.545
Cd0.18Tl0.82,2.54
La1Pb0.75Sn2.25,2.54
Pd0.3Zr0.7,2.53
Pt1V3,2.53
Nb3Rh0.98Au0.02,2.53
Nb3Rh0.95Pt0.05,2.53
Au0.02Nb3Rh0.98,2.53
La0.99Tb0.01,2.53
Mo3.95Zr96.05,2.53
Th1Ir1Ru1,2.53
Th1Ir0.8Ru1.2,2.53
Cu0.03Ir1Te2,2.53
Ba1Cu0.5Si1.5,2.53
Sr0.15Ba0.85Ni2P2,2.53
Ba1Ni2P2,2.53
Ir0.8Rh0.2Te2,2.525
Nb1Os2,2.52
Nb3Rh0.95Au0.05,2.52
Nb3Rh0.98Pt0.02,2.52
Nb3Pt0.02Rh0.98,2.52
Ce0.8Tb0.2Ru2,2.52
Pd0.985Ni0.015H0.84,2.52
In0.4Tl0.6,2.52
Au0.07Zr0.93,2.52
Y2Pd0.7Pt0.3Ge3,2.52
Rb1Fe2As2,2.52
Sr1Pd1.8Ag0.2Ge2,2.52
Be22Mo1,2.51
Hf0.661W0.339,2.51
Sm1Rh4B4,2.51
Ba1Ni2P2,2.51
La1Ru2.9175Fe0.0825Si2,2.51
Li0.48Fe1.52S1H1O1,2.51
La1.85Sr0.15Cu0.973Co0.027O4,2.5
La1.85Sr0.15CuNi0.04O4,2.5
La1.75Sr0.25Cu0.96Ni0.04O4,2.5
C1,2.5
Lu1Ni1B1C1,2.5
Lu1Ni1B0.95C0.95,2.5
Mg0.7Zn0.3C1Ni3,2.5
Pd2Yb1Pb1,2.5
Lu5Ir4Ge10,2.5
B5Nb1.8V0.2,2.5
Cr0.8Os0.2,2.5
Cu0.05Rh0.04Ti0.91,2.5
H0.81Pd1,2.5
Hf0.9Mo0.1,2.5
In1Sb1Sn1,2.5
La0.75Y0.25,2.5
Mg0.9Mo5.1S6,2.5
Nb0.9Pt0.1,2.5
Nb0.4Ru0.6,2.5
Se1Y1,2.5
Y1,2.5
La1Si2,2.5
Nb0.4Re0.6,2.5
La0.75Y00.25,2.5
Nb3Rh0.98Pd0.02,2.5
Co0.5Rh0.5Si2,2.5
Ru0.05Ti0.95,2.5
Lu0.1Dy0.9Ni2B2C1,2.5
Cu1Se2,2.5
Na2Rb1C60,2.5
Na2K1C60,2.5
Ba1Nb2Se5,2.5
Cd1.3Mo6Se7.5,2.5
Nb1Se3,2.5
Mg1B1.75C0.25,2.5
Y1Ir2Si2,2.5
S2Ta1,2.5
Co3Y4,2.5
Bi1La4Pb2,2.5
Yb3Co4Sn13,2.5
Y4Os6Sn19,2.5
Mg0.7Zn0.3C0.99Ni3,2.5
Sm1Fe1P1O1,2.5
Er0.72Gd0.28Rh4B4,2.5
Mg12Ir19B16,2.5
Ni0.02Ta1Se2,2.5
La3Ir4Sn13,2.5
Li1Rh1B1.5,2.5
Li1.2Rh1B1.5,2.5
Cu0.06Ti1Se2,2.5
Lu2Ir2.4Rh0.6Si5,2.5
La3Pd4Ge4,2.5
Pr1Ru4As12,2.5
La1Rh1P1,2.5
Ir0.95Pd0.05Te2,2.5
La0.95Y0.05F0.5Bi1S2O0.5,2.5
La1Bi1S2F0.5O0.5,2.5
La1Bi1S1.6Se0.4F0.5O0.5,2.5
Rb1Fe2As2,2.5
Mg1Pt1Si1,2.5
Ir1Te2,2.5
Ge4Rh1,2.5
Te2Ti1,2.5
Bi1.5Pb0.5Pd1,2.5
Sr0.1Bi2Se3,2.5
Pd1Bi1.72Pb0.28,2.5
La1F0.5Bi1S2O0.5,2.5
Pd29Zr71,2.49
Nb3Rh0.95Pd0.05,2.49
Nb3Pd0.02Rh0.98,2.49
Ir0.92Pt0.08Te2,2.49
Ba1Ti2Sb1.4Sn0.6O1,2.49
Sn0.3361Pb0.5039In0.16Te1,2.49
La1Bi1S2F0.5O0.5,2.49
La1Ru2.9175Fe0.0825Si2,2.49
Co35Zr65,2.48
Sn0.84In0.16Te1,2.48
Pb1Se1Eu1S1,2.48
Mo0.3Nb0.7,2.48
In0.45Tl0.55,2.48
Sr0.062Bi2Se3,2.48
La0.8Ti0.2Bi1S2O1,2.48
La1F0.5Bi1S2O0.5,2.48
La1F0.5Bi1S1.6Se0.4O0.5,2.48
Ir2Lu1,2.47
Nb0.6Pd0.4,2.47
Bi1Li1,2.47
Lu0.1Dy0.9Ni2B2C1,2.47
La0.4Ce0.6Ru3Si2,2.47
Sr0.065Bi2Se3,2.47
Th1Co1C2,2.47
Ir3Th1,2.47
Ir2.5Sc1,2.46
Y2Pd0.6Pt0.4Ge3,2.46
Ca1Al0.74Si1.26,2.46
Bi1Li1,2.455
Ce1Au2Si2,2.455
Rb0.33W1O3,2.45
K1Tl1.5C8,2.45
Al2Gd0.002La0.998,2.45
Cu0.95Se2Zn0.05,2.45
Nb0.38Re0.62,2.45
La3Te4,2.45
Fe0.5Ni0.5Zr2,2.45
Pd1Te1.04,2.45
Ba1Ni2Ge0.6P1.4,2.45
Ce1Bi1S2F0.5O0.5,2.45
Sr1Pt1As1,2.45
Cu0.05Ir1Te1.7Se0.3,2.45
La1F0.6Bi1S2O0.4,2.45
La0.85Ce0.15Ru2,2.444
Rh41Zr59,2.44
Ni31Zr69,2.44
Ni36.5Zr63.5,2.44
Nb3Rh0.9Ru0.1,2.44
Tm0.84Lu0.16Fe3Si5,2.44
Ni1Zr2,2.44
Cu1Se2,2.43
Ir0.02Nb3Rh0.98,2.43
Nb0.38Re0.62,2.43
Nb3Rh0.98Ir0.02,2.43
Co1U6,2.43
Pd2Yb1Sn1,2.42
Ru2Y1,2.42
Nb3Rh0.98Os0.02,2.42
Nb3Rh0.95Ru0.05,2.42
Nb3Rh0.98Ru0.02,2.42
Nb3Os0.02Rh0.98,2.42
Y2Pd0.5Pt0.5Ge3,2.42
Bi2Se3,2.42
In0.005Tl0.995,2.418
Pd2Y0.95Gd0.05Sn1,2.41
Si2Th1,2.41
Si1Th1,2.41
Cu0.55Zn0.45Ir2S4,2.41
Co1U6,2.41
Cu0.1Ir1Te2,2.41
La3Co3.5Ru0.5Sn13,2.41
La0.995Ce0.005Ni1C2,2.41
Na0.26Co1H2.6O3.3,2.4
Lu1Ni1B1.1C0.9,2.4
Lu1Ni1B1C0.85,2.4
Yb0.2Mo1S2,2.4
Pd2Sc1Pb1,2.4
Pd2Lu1Pb1,2.4
As1,2.4
Cd1Mo5S6,2.4
Ge1.62Y1,2.4
Ir1.5O0.5Y1,2.4
Mn0.05Rh0.04Ti0.91,2.4
Nb0.05Rh0.04Ti0.91,2.4
Re0.15W0.85,2.4
Ru2Zr1,2.4
Tl1,2.4
Ir0.37Nb0.63,2.4
Y1Ir1.5Os0.5,2.4
Ag1In2,2.4
Ir0.5Os0.5,2.4
Si2Th1,2.4
Y0.7Ca0.3C2,2.4
Pr1Ru4As12,2.4
Ho1Ni1.972Co0.056B2C1,2.4
Y2Fe3Si5,2.4
La3Ni1,2.4
Cd1Mo6Se8,2.4
Sm1.2Mo6S8,2.4
La13Ga8Sb21,2.4
La1Rh1Al1,2.4
Ce1Ru1.95Co0.05,2.4
Mn1U6,2.4
La2.406Pr0.594Tl1,2.4
Rh0.01Ti0.99,2.4
Lu1B2C2,2.4
Mo6Te5I3,2.4
Bi1.5La4Pb1.5,2.4
La0.996Tb0.004Al2,2.4
Lu1Ru2Si2,2.4
La1Ni1As1O1,2.4
Pd2Hf1In1,2.4
Ba1Ga1Ge1,2.4
Ni2Zr0.85Nb0.15Ga1,2.4
Yb1Ga1.1Si0.9,2.4
Sr1Pt1As1,2.4
Zr55Co30Al15,2.4
In1N1,2.4
Bi6S5O8,2.4
La0.995Ce0.005Ni1C2,2.4
Ba1Ir2As2,2.4
Cu0.04Pd1Te2,2.4
Sr1Ta2S5,2.4
Cr0.75Ru0.25,2.4
Ce0.5Pr0.5Bi1S2O1,2.4
Bi1Sb1Te2Se1,2.4
Tl1,2.3956
Tl1,2.3917
Cu0.06Ti1Se2,2.39
Nb3Rh0.95Os0.05,2.39
Tl1,2.39
La0.998Gd0.002Al2,2.39
Ba1Fe1.952Ni0.048As2,2.39
Ir0.85Rh0.15Te2,2.39
Eu3Bi2S3Se1F4,2.39
Tl1,2.3861
Tl1,2.38
Au0.2Sn0.8,2.38
Be0.9Ni0.1,2.38
Ir0.05Nb3Rh0.95,2.38
Pt1Sn4,2.38
Hf0.909W0.091,2.38
Nb3Rh0.95Ir0.05,2.38
Th1Si1.95Co0.05,2.38
Tl1,2.376
Mo3Sb7,2.37
Cu1Se2,2.365
La1Rh1Bi1,2.36
Pd1Zr2,2.36
Nb0.4Re0.6,2.36
Sn0.798Ge0.042In0.16Te1,2.36
Al0.08V0.92,2.36
Ti0.595V0.255Al0.15,2.36
Th1Ir1.3Os0.7,2.36
Pd2Yb1Sn1,2.36
Bi1.1Nb1Se3.1,2.36
La0.8Hf0.2Bi1S2O1,2.36
Ru2Sc1,2.36
Co1U6,2.36
Mo3Sb7,2.36
Nd0.03La0.97Ni1C2,2.36
Ge3Y1,2.35
Rh0.4Ta0.6,2.35
Ta0.5V0.5,2.35
Rh2Ta3,2.35
La5Ru2,2.35
In1N1,2.35
Ba1Fe1.936Co0.044Cu0.02As2,2.35
Mo3Sb7,2.35
La0.8Ti0.2Bi1S2O1,2.35
Ce0.2Nd0.8F0.3Bi1S2O0.7,2.35
Cu0.15Ir1Te1.5Se0.5,2.35
Tl0.6Bi2Te3,2.35
Eu2Sr1Bi2S2.5Se1.5F4,2.35
Pd31Zr69,2.34
Hf0.96Rh0.04,2.34
Sr1Fe1.78Ni0.22As2,2.34
Er1Ir4B4,2.34
Pr1Fe1P1F0.1O0.9,2.34
Tl1,2.332
Mn0.025Ti0.975,2.33
Pr1Ru4As12,2.33
La7Ir3,2.33
Ce0.2Nd0.8Bi1S2F0.3O0.7,2.33
Ce1Co1In5,2.325
Ag0.94Tl0.06,2.32
Ba1Hg1,2.32
Ir3La7,2.32
Mn1U6,2.32
Ir0.37Nb0.63,2.32
Sn0.756Ge0.084In0.16Te1,2.32
La1Rh3B2,2.32
La1Rh1Si3,2.32
Ti4O7,2.315
Ni40Zr60,2.31
Li2B1Pd0.9Pt2.1,2.31
Mo3Sb7,2.31
Fe0.15Ni0.85Zr2,2.31
Nb3Se4,2.31
Ba1Ti2Sb1.6Sn0.4O1,2.31
La1Fe1As0.8P0.2O1,2.31
Ce1Co1In5,2.31
Ni0.05Ta1S2,2.305
Ce1Co1In5,2.3
C3Na1,2.3
Ca1Cu0.33Si1.67,2.3
Pd2Y1Pb1,2.3
Nb2Se3,2.3
Tm4Rh6Sn19,2.3
Be2Nb3,2.3
Be5Pt1,2.3
Cd0.17Tl0.83,2.3
Co1U6,2.3
Ga3Lu1,2.3
Ir0.1Nb0.9,2.3
Ir0.265O0.085Zr0.65,2.3
La1Si2,2.3
N0.75V1,2.3
Pd5Se2,2.3
Re0.05Rh0.04Ti0.91,2.3
Rh0.04Ta0.05Ti0.91,2.3
Pd1Te1,2.3
Ag1In2,2.3
Nb3Rh0.9Os0.1,2.3
Ir0.265O0.035Ti0.65,2.3
Pd2.8Se1,2.3
Cu1.2Co1.8S4,2.3
Yb1Pd2Sn1,2.3
Hf1Rh1Si1,2.3
Pr1Th3.4Ru0.6B4,2.3
Lu3Ru4Ge13,2.3
Y2Cl2C2,2.3
Cu1.5Co1.5S4,2.3
Ta2Zr1,2.3
S2Ta1,2.3
Se3Ta1,2.3
Bi2La4Pb1,2.3
Lu3Rh4Ge13,2.3
Ta1Ge2,2.3
Y2Fe3Si5,2.3
Pr1Ru4As12,2.3
La1Ir1Si1,2.3
Cu0.06Ti1Se2,2.3
Au1Pd1In1Y1,2.3
Ni2Zr0.7Nb0.3Ga1,2.3
Dy0.85Tm0.15Ni2B2C1,2.3
Pb1.16Ti2Se5.16,2.3
Ca1Pt1Si3,2.3
Sr1Si1.9Ni0.1,2.3
Sb3Zr5,2.3
Au1Te2,2.3
La1Rh1Si3,2.3
Cu0.2Ir1Te1.5Se0.5,2.3
Ti0.85Ta0.15Se2,2.3
Mo3Sb7,2.3
Eu0.5Ce0.5F1Bi1S2,2.3
Tl1Ni2S2,2.3
Ce1Bi1S2F0.45O0.55,2.295
Co1U6,2.29
As2Cd1Sn1,2.29
Sc1Pd2Sn1,2.29
La0.93Nd0.07Pt1Si1,2.29
Cr0.33Re0.67,2.29
La0.9Y0.1Ni1C2,2.29
Ce1Co1In5,2.29
Sn0.8Ag0.2Te1,2.29
Ir0.95Pt0.05Te2,2.29
Ti0.85Ta0.15Se2,2.29
Ti0.8Ta0.2Se2,2.29
La1Pt0.5Ni0.5Si1,2.285
Mo0.15V0.85,2.28
Nb3Rh0.98Co0.02,2.28
Co0.02Nb3Rh0.98,2.28
Ba8Si23Ge23,2.28
Rh0.88Ru0.12Se2,2.28
Ir0.92Pt0.08Te2,2.28
Sn0.6646Pb0.2854In0.05Te1,2.28
Ti0.8Ta0.2Se2,2.28
Ce1Co1In5,2.27
Th7Fe0.72Co2.28,2.27
Y2Pd1Si2.25C0.75,2.27
La0.96Gd0.04Ru2,2.27
Au1.8Pd0.2In1Y1,2.27
Sr1Fe1.78Ni0.22As2,2.27
Ce1Bi1S2F0.5O0.5,2.27
Cu60Sn40,2.26
Ce1Co1In5,2.26
Ag1Th2,2.26
Pb1Nb1S3,2.26
Nb0.85Pd0.15,2.26
Y2Pd0.3Pt0.7Ge3,2.26
Ce1Rh1In5,2.258
Ce1Co1In4.9992Hg0.0008,2.254
Ce1Co1In4.9976Hg0.0024,2.252
Ce1Co1In5,2.25
Bi1Na1,2.25
Bi0.57Sn0.43,2.25
Bi2Y3,2.25
Ir0.34Nb0.66,2.25
Pd1.75Te2,2.25
Ho0.9La0.1Ni2B2C1,2.25
Ce1Rh1In5,2.25
La6Ni2Sn1,2.25
Th1Ir0.1Os1.9,2.25
Mo3Sb7,2.25
Ga9Ir2,2.25
Tm5Rh6Sn18,2.25
Ce1Bi1S2F0.33O0.67,2.25
Ce1Co0.9Ru0.1In5,2.25
Sn0.776Pb0.194In0.03Te1,2.25
Ir3La7,2.25
Ag2Pd3S1,2.25
Ce1Rh1In5,2.24
Pd32Zr68,2.24
Ge2La1,2.24
Ir3La7,2.24
Ru2Sc1,2.24
Y2Pd1Ge2Si1,2.24
Cu0.055Ti1Se2,2.24
Ce1Co1In5,2.24
Ce1Au2Si2,2.24
Al2La1,2.237
Re0.83Ru0.17,2.23
Sn0.714Ge0.126In0.16Te1,2.23
Ce1Rh1In5,2.23
Ce1Co1In5,2.23
Ir0.37Nb0.63,2.23
Ce1Co1In4.9945Cd0.0055,2.23
Nb2Pd1S3.75Se1.25,2.23
La3Pd4Ge4,2.23
Lu1Ru2,2.23
Ti0.9Ta0.1Se2,2.23
Ce1Co1In4.9945Cd0.0055,2.222
Y1Os1B2,2.22
La0.7Ti0.3Bi1S2O1,2.22
Th1Ir2Si2,2.215
Te3Tl5,2.21
Mn1U6,2.21
Pd1.5Te2,2.21
Ce1Co1In4.996Sn0.004,2.21
Cu0.2Ir1Te1.8Se0.2,2.21
Ce1Rh1In5,2.21
Ce0.5Pr0.5Bi1S2O1,2.21
Ce1Rh1In5,2.207
Am1,2.2
Na0.33Co1H2.6O3.3,2.2
Ce1Rh1In5,2.2
Bi2Rh1,2.2
Hf1V2H1.6,2.2
Au0.41Ge0.59,2.2
Ba0.14O3W1,2.2
Bi1Cu1,2.2
Bi1Re2,2.2
Co0.92Mn0.08U6,2.2
In1Te1,2.2
La0.55Lu0.45,2.2
Li0.3O3W1,2.2
Os0.15W0.85,2.2
Pd0.67Se0.33,2.2
Pd1.25Te2,2.2
Nb3Sb1,2.2
Pd2Se1,2.2
Re24Sc5,2.2
Bi2Ir1,2.2
Nb1Se2,2.2
Cu0.5Zn0.5Ir2S4,2.2
Cu1S1.8Se0.2,2.2
Er1.2Mo6S8,2.2
Ce1Co1In5,2.2
Y2Pd1Si2C1,2.2
Cu1.75Co1.25S4,2.2
Y0.92Gd0.08Ru2,2.2
Ir0.4Nb0.6,2.2
Yb0.2W1Se2,2.2
Lu1Mo6S8,2.2
Nb0.83Pd0.17,2.2
Ge2La1,2.2
La0.84Pr0.16,2.2
La3Ni1,2.2
Ge2Hf1,2.2
La3Rh4Pb13,2.2
Y4Ir6Sn19,2.2
Ga9Ir2,2.2
La1Rh1Si3,2.2
La1Ir1Si3,2.2
Mo3Sb7,2.2
La3Ni4P4O2,2.2