formula,Tc
Sb0.28Tl0.72,5.2
Sb0.66Tl0.33,5.2
Sn1,5.2
Re0.52W0.48,5.2
C1W2,5.2
Sb2Tl7,5.2
Co1Zr2,5.2
Ge0.02Nb0.98,5.2
Y0.45Dy0.55Ni2B2C1,5.2
V1,5.2
Ho0.0105La0.9895,5.2
Nb5Zr2Be8,5.2
Rh0.05Zr0.95,5.2
Th1.4Ho0.6C3,5.2
Re0.8V0.2,5.2
Hf1Re2,5.2
Bi0.9Sb0.1,5.2
Lu2Ir3Si4.5Ge0.5,5.2
Lu2Sn1C1,5.2
Sr1Pt2As2,5.2
Mg4Al1Si3,5.2
La0.1Sm0.9Bi1S2F0.5O0.5,5.2
Nd1Bi1S2F0.29O0.71,5.2
Bi3.9Co0.1S3O4,5.2
Ba7.8Eu0.2Al5Si41,5.2
Ag1Sn0.9Bi0.1Se2,5.2
B6Y1,5.2
Ba1Fe1.8Ni0.2As2,5.2
Nb1Se2,5.2
Pb1Te1,5.19
Ba1Pt3.5Au0.5Ge12,5.19
Nd0.6Sm0.4Bi1S2F0.3O0.7,5.19
Rh0.94Se2,5.19
Zr1P1.5Se0.5,5.19
Zr1.75La0.25P1.25Se0.75,5.185
Zr1.6La0.4P1.25Se0.75,5.185
Sr2Ca12Cu24O41,5.18
La0.99Nd0.01,5.18
Ho0.01La0.99,5.18
Zr0.8Mo0.2,5.18
Mg1C1Ni2.975Fe0.025,5.17
V1,5.17
Os0.1Zr0.9,5.17
La0.92Tm0.08Sn3,5.17
Nd1Bi0.98Pb0.02S2F0.3O0.7,5.17
V1,5.16
Ca1Rh2,5.16
Li0.68Nb1O2,5.15
Os0.5V0.5,5.15
Nb1Se2,5.15
V1,5.15
Nb0.3Ta0.7,5.15
Cr0.0018V0.9982,5.15
La0.8Th0.2,5.15
Th1Ir1.6Os0.4,5.15
La0.3Sm0.7Bi1S2F0.5O0.5,5.14
Zr2Co0.7Ni0.3,5.14
Nb55Rh45,5.13
Mo0.97Fe0.03Ga4,5.13
Sm1Fe0.95Co0.05As1O1,5.13
Ba0.9K0.1Ti2Sb2O1,5.13
Ru0.5W0.5,5.12
Re0.5W0.5,5.12
Nd1Bi1S2F0.2O0.8,5.12
Nd1Bi1S2F0.3O0.7,5.12
La0.9Ce0.1Ru3Si2,5.12
Pr0.62Eu0.38Pt4Ge12,5.12
Ce0.7Pr0.3Ru2,5.11
Sr0.9K0.1Fe2As2,5.11
Nd0.8Sm0.2Bi1S2F0.5O0.5,5.11
La1.8Sr0.2Cu0.96Ni0.04O4,5.1
Sr2Y1Ru0.96Cu0.04O6,5.1
Bi2Sr2Ca0.5Pr0.5Cu2O8.329,5.1
Sr0.2Mo1S2,5.1
Lu5Ir4Si6Ge4,5.1
Ge0.2La0.8,5.1
Ti45Nb40Si15,5.1
Al0.03Ti0.81V0.16,5.1
Ba1,5.1
N1Nb1,5.1
Re0.83Ti0.17,5.1
Bi1In2,5.1
Hg1Sn6,5.1
V2.52Mo0.48Si1,5.1
Nb2.55V0.45Au1,5.1
Nb3Rh0.7Pt0.3,5.1
Er1Ni1.9625Co0.075B2C1,5.1
Ti1Rh1Si1,5.1
Mg0.23Al0.77B2,5.1
Sr1Ga1Si1,5.1
Sr1Al1Si1,5.1
V0.749Sb0.157Al0.094,5.1
B1W1.26Re0.74,5.1
Cr0.56Re0.44,5.1
In0.85Pb0.15,5.1
Sb1Ti3,5.1
Tc0.75Ti0.25,5.1
Sr3Ir4Sn13,5.1
Sr1Pt4Ge12,5.1
Rb0.14W1O3,5.1
Rb0.16W1O3,5.1
Nb1Re1Si1,5.1
Ba1Fe1.856Ni0.144As2,5.1
Zr2Co0.75Ga0.25,5.1
Ba1Fe1.76Co0.24As2,5.1
Ba0.5K0.5Fe1.7Ni0.3As2,5.1
La0.3Sm0.7Bi1S2F0.5O0.5,5.1
Bi3S3O3,5.1
Nd0.8Sm0.2F0.3Bi1S2O0.5,5.1
Bi2S2F0.5O0.5,5.1
La3Co4Sn12.35In0.65,5.1
Bi2F0.6S2O0.4,5.1
Ag1Sn0.8Bi0.2Se2,5.1
Nb0.93Ni0.07B2,5.1
Ta1Ir2B2,5.1
C1Ta1,5.09
B1Mo1Re1,5.09
Ho1Rh3.6Ir0.4B4,5.09
Zr1.6Y0.4P1.25Se0.75,5.09
Y2C2Br1I1,5.08
Cu1.2Rh1.8S4,5.08
Re0.4W0.6,5.08
Cr0.0033V0.9967,5.07
Lu0.8Dy0.2Ru1B2,5.07
Bi2Pd1,5.07
Bi0.1In0.9,5.05
Ru0.46V0.54,5.05
Bi10.1In0.9,5.05
Y2C2Br2,5.05
Y2Br2C2,5.05
Hg0.06Sn0.94,5.05
Ba1Pt3.75Au0.25Ge12,5.05
Os0.55V0.45,5.04
Y2C2Br2,5.04
Y0.6Tb0.4Ni2B2C1,5.04
Sr1Ga1.1Si0.9,5.04
La2.9628Gd0.0372In1,5.04
La0.9Sr0.1Fe1As0.8P0.7O1,5.04
Y2C2Br2,5.03
In0.88Sn0.12,5.03
Mo6Se7.3S0.7,5.03
Co7.32Ga25V67.68,5.03
Ba1Pt4Ge12,5.03
Nb5Ir0Pt3O1,5.03
Rb0.19W1O3.001,5.02
Y1Pd2Sn1,5.02
Ba1Fe1.2Ru0.8As2,5.02
Ba0.76La0.24Fe2As2,5.02
La1Ru2.865Ni0.135Si2,5.02
Rb0.23W1O3.05,5.01
Li0.6Cs1Sr2Nb3O10,5.01
Hf0.8Y0.2P1.55S0.45,5.01
La1.7Ba0.3Cu0.99Zn0.01O4,5
Bi2Sr1.4La0.6Cu1O6.42,5
Li0.5Nb1O2,5
Ca0.4Ba1.35La1.25Cu3O6.9,5
La1.65Nd0.2Ca1.15Cu2O5.99,5
Sr2.5Ca11.5Cu24O41,5
Sm0.7Pr0.3Ba2Cu3O6.8,5
Tl1Sr1.5Ce0.5Ca1Cu2O7,5
Ca0.1La1.25Ba1.65Cu3O6.985,5
Sr2Ca12Cu24O41,5
Na0.35Co1H2.6O3.3,5
Sr11Ca12Cu24O41,5
La0.68Eu0.2Sr0.12Cu1O4,5
Na0.3Co1H2.6O3.3,5
C2Na1,5
Mo2N1,5
Sr0.2Mo1Se2,5
Hf1V1.7Fe0.3,5
Ti50Nb35Si15,5
Ti56Nb30Si14,5
Ti55Nb30Si12B3,5
Si1,5
Nb60Mo20Si20,5
Nb1Se3,5
Ba6.62Si46,5
Co1Zr2,5
Mo0.725Nb0.061Re0.187,5
Ru0.46V0.54,5
Ru0.4W0.6,5
N0.34Re1,5
C1Hf0.9Ta0.1,5
C1Re0.06W1,5
Nb1S2,5
Sc3.5Dy1.5Ir4Si10,5
Ho1Ni1.993Co0.014B2C1,5
Au0.2Nb0.8,5
C0.9Nb1,5
Nb80Ga15Mn5,5
B2Mg1,5
Zr1Ru1Si1,5
Nb2S1C0.9,5
Pb1Mo6Se7.55,5
Sc5Co4Si10,5
Y2C2Br2,5
Sr1Al1Si1,5
Ba8Si37Ge9,5
Cr0.1Nb0.9,5
Mo8.75Zr91.25,5
Rh0.035Zr0.965,5
Rh0.04Zr0.96,5
Sr0.2Mo1S2,5
Re2Th1,5
Pd0.1Ti0.9,5
Ga6Tb1,5
Np1Pd5Al2,5
La1,5
Mo1.905Hf0.095B1C1,5
Ba1Pt4Ge12,5
Ce1Fe0.85Co0.15As1O1,5
Ba0.9K0.1Fe2As2,5
Fe0.9Co0.1Se1,5
La1Fe1As0.6P0.4O1,5
Sr3Ir4Sn13,5
Tl2Mo6Se6,5
Th3Ni5C5,5
Ba1Fe1.75Zn0.14Co0.11As2,5
C1,5
Ba0.85Na0.15Ti2Sb2O1,5
Fe1Se0.82Br0.18,5
Fe1Se0.8Br0.2,5
Fe1Se0.7Br0.3,5
Nb0.9Mg0.1N0.87O0.13,5
La3Co1Ru3Sn13,5
Eu0.5La0.5F1Bi1S1.2Se0.8,5
Re24Zr5,5
Li0.5Cs1Sr2Nb3O10,5
Li0.1Rb1Ca2Nb3O10,5
Li0.1K1Ca2Nb3O10,5
Ta0.7Zr0.3B1,5
Zr1P1.2Se0.8,5
Ca3Ir4Sn13,5
Bi2Pd1,5
Hf0.4Lu0.6P1.45S0.55,5
Hg1Ba2Cu1O4.03,49.9
Y1Ba1.5Sr0.5Cu3O6.75,49.9
Nd1Ba1Sr1Cu3O7.02,49.9
Y1Ba1Sr1Cu2.8Sn0.2O7.12,49.8
Pr1Fe1As1H0.6O0.6,49.7
Y1Ba2Cu3O6.6,49.6
Sm1Fe1As1F0.25O0.7,49.6
Y1Ba2Cu3O6.41,49.5
Sm1Fe1As1F0.15O0.85,49.5
Y1Ba2Cu3O6.45,49.5
Y1Ba1.6La0.4Cu3O7.083,49.4
Sm1Fe1As1F0.12O0.88,49.35
Y1Ba1.6La0.4Cu3O7.11,49.3
Bi2Sr2Ca1Cu2I0.98O8.21,49.3
Y1Ba1Sr1Cu2.8Sn0.2O7.122,49.3
Y1Ba2Cu3.92Ni0.08O8,49.25
Ho1Fe1As1O0.85,49.1
Y1Ba2Cu2.8Fe0.2O6.93,49
Y1Sr2Cu2.75Re0.25O7.3,49
Y1Ba2Cu3O6.45,49
Y0.5Pr0.5Ba2Cu4O8,49
Y1Ba2Cu3.92Zn0.08O8,49
Pb0.5Cd0.5Sr1.5Ba0.5Ca0.5Y0.5Cu2O7,49
Ca1La1Ba1Cu2.97Fe0.03O7,49
Ba1.6Sr0.4Yb0.65Ca0.35Cu3O6.15,49
Tl1Sr2Ba2Cu2C2.7N0.3O7,49
Tl1Sr2Ba2Cu2C2.4N0.6O7,49
Tl1Sr2Ba2Cu2C0.8N0.2O10,49
Eu1.5Ce0.5Ru1Sr2Cu2O10,49
Y0.6Pr0.4Ba0.8Sr1.2Cu3O6.89,49
Y0.6Pr0.4Ba0.6Sr1.4Cu3O6.89,49
Tl1.89Ba2Cu1.11O6.18,49
Sm1Ba2Cu2.92Zn0.08O6.85,49
Y0.6Pr0.4Ba2Cu4O8,49
Ru1Sr2Gd1Cu2O8,49
Sm1Fe1As1F0.2O0.8,49
Ca0.875Pr0.125Fe2As2,49
C0.51Sr2Ca0.5Y0.5Cu2.42O6.92,48.9
Y1La0.2Ba1.8Cu3O7.06,48.9
Ba1.6Sr0.4Yb1Cu3O6.69,48.9
Sm0.89Th0.11Fe1As1O1,48.9
Y0.6Pr0.4Ba2Cu3O7,48.7
Y1Ba1.9La0.1Cu3.972Zn0.028O8,48.7
Ca0.6Nd0.4Ba1La1Cu3O7.1,48.6
Bi1.8Pb0.2Sr2Ca1Cu1.94Co0.06O8,48.6
Y1Ba2Cu3O6.48,48.5
Bi1.8Pb0.2Sr2Ca1Cu1.96Fe0.04O8,48.5
La3Ca0.4Cd0.6Ba3Cu7O16.336,48.5
Pr1Fe1As1O0.7,48.5
Gd1Fe1As1F0.2O0.8,48.35
Yb0.7Ca0.3Ba1.6Sr0.4Cu3O6.1,48.3
Nd0.9Pr0.1Ba2Cu3O6.85,48.3
Pr1Fe1As1O0.85,48.2
Ru0.8Sn0.2Sr2Gd1Cu2O8,48.1
Y1Ba2Cu3.88Fe0.12O8,48.05
Y1Ba2Cu2.9Fe0.1O6.92,48
Bi2Sr2Ca0.7Gd0.3Cu2O8,48
Bi2Sr2Ca0.7Y0.3Cu2O8,48
Y1Ba2Cu3O6.48,48
Y1Ba2Cu2.9Fe0.1O6.8,48
Er0.64Ca0.36Ba1.4Sr0.6Cu2.76Co0.24O6.8,48
Lu0.8Ca0.2Ba2Cu3O6.91,48
Nd1.6Pr0.4Ba4Cu7O14.603,48
La3.1Gd0.2Ca0.4Ba3.3Cu7O16.473,48
Cu1Ba1.6Sr0.4Yb0.65Ca0.35Cu2O6.15,48
Tl0.7Bi0.3Sr4Cu2C1O10,48
Tl1Sr1.6Cr0.4Cu1O5,48
La1.3Ba1.5Ca0.2Cu3O6.72,48
Ru1Sr2Gd1Cu2O8,48
Y1Ba2Cu3H0.48O7,48
Ru0.8Sn0.2Sr2Gd1Cu2O8,48
Y1Ba2Cu2.95Zn0.05O6.75,48
Hg1Ba2Cu1O4.033,48
Bi2Sr2Ca0.57Pr0.43Cu2O8,48
Gd1.15Ba1.85Cu3O6.99,48
Nd1Fe1As1F0.12O0.88,48
Nd1Fe1As1F0.11O0.89,48
Nd1Fe1As1F0.1O0.9,48
Ce1Fe1As1H0.22O0.78,48
Ce1Fe1As1H0.21O0.79,48
Y1Ba2Cu3H0.16O6.54,47.9
Fe0.5Ba1Sr1Er1Cu2.5O7.439,47.8
La1.75Ca1.25Cu2O5.99,47.7
Y1Ba2Cu2.85Zn0.15O6.85,47.6
Nd1.2Ba1.8Cu3O6.91,47.6
La1.7Pr0.3Ca0.6Ba2Cu4.6O10.8862,47.6
Y0.7Pr0.3Ba2Cu3O6.88,47.5
La1.85Sr0.15Ca1Cu2O6.03,47.5
Y0.72Ca0.28Ba2Cu3O6,47.5
Y1Ba2Cu3.95Zn0.05O8,47.5
Ru1Sr2Gd1Cu2O8,47.5
Nd1Fe1As1F0.06O0.94,47.5
Y1Ba2Cu2.94Ni0.06O6.7,47.4
Bi2Sr2Ca1Cu2O8.329,47.3
Y1Ba2Cu3H0.31O6.54,47.3
Y1Ba2Cu3O6.45,47.3
Y1Ba2Cu2.7Zn0.3O6.92,47.2
Bi2Sr2Ca1Cu2O8.373,47.2
Y1Ba1.8La0.2Cu3O6.8,47.2
Ca0.88La0.12Fe1As1.8Sb0.2,47.2
Ca0.4Ba1.25La1.35Cu3O7.11,47.1
Y1Ba2Cu2.88Zn0.12O7,47.02
Sm1.2Ba1.8Cu3O6.965,47
Tl2Ba2Cu1O6.05,47
Y1Sr0.6Ba1.4Cu2.5B0.5O7,47
Y1Ba2Cu3O6.45,47
Sr2Cu1F2O2,47
Pb2Sr2Y0.85Ca0.15Cu3O8,47
Y1Ba2Cu2.94Fe0.06H0.4O7,47
Y0.6Ca0.4Ba1.1La0.9Cu3O7.18,47
Y1Ba2Cu3.938Zn0.062O8,47
Ca1Ba1La1Cu3O7,47
Ba1.6Sr0.4Yb1Cu3O6.64,47
Ba1.6Sr0.4Yb0.6Ca0.4Cu3O6.14,47
Ba1.6Sr0.4Yb0.6Ca0.4Cu3O6.04,47
Tl1Sr1.7Cr0.3Cu1O5,47
C1Ca3Cu2O7.1,47
Cu0.25C0.75Ca3Cu2O6.85,47
La2.1Yb0.2Ba2.1Ca0.4Cu5O11.802,47
Y0.6Pr0.4Ba2Cu3O6.88,47
Y0.6Pr0.4Ba1.8Sr0.2Cu3O6.85,47
Y1Ba2Cu3.95Zn0.05O8,47
Lu0.6Pr0.4Ba1.7Sr0.3Cu3O6.91,47
Sm1Ba2Cu2.8Fe0.2O6.96,47
Y1Ba2Cu3.98Zn0.02O8,47
La0.6Ca0.2Pr0.2Ba1.5Sr0.5Cu3O6.809,47
Ga1Sr2Tm0.65Ca0.35Cu2O7,47
Ce1Fe1As1F0.11O0.89,47
Ce1Fe1As1F0.12O0.88,47
Nd1Fe1As1F0.18O0.82,47
Sm1Fe1As1F0.1O0.9,47
Sm0.9U0.1Fe1As1O1,47
Nd1Fe1As1O0.9,46.9
Tb1Fe1As1O0.85,46.8
Sm1Fe1As0.95P0.05F0.12O0.88,46.8
Nd1Fe0.98Ru0.02As1F0.11O0.89,46.7
Bi4Sr3Ca2Tm1Cu4O16.73,46.5
Nd1Fe0.98Ru0.02As1F0.11O0.89,46.5
Ca0.3Ba1.45La1.25Cu3O7.05,46.4
Pr1Fe1As1F0.154O0.846,46.4
Sm1Fe1As1H0.4O0.6,46.4
Nd1Fe1As1F0.3O0.7,46.4
Y1Ba2Cu2.82Zn0.18O7,46.18
Ca0.2Ba1.55La1.25Cu3O7.07,46.1
Y2La0.8Ba3.2Cu6O14.2,46
Y1Ba2Cu2.82Co0.18O7,46
Y1Ba2Cu2.7Ni0.3O6.9,46
Y2Ba4Cu7O14.46,46
Y1Sr2Cu2.65Fe0.35O7.1,46
Sr2Cu1F2.33O2,46
Sr2BaCu1F2O2,46
Y0.7Pr0.3Ba2Cu3O6.65,46
Er1Ba2Cu2.88Co0.12O6.78,46
Ba1.6Sr0.4Yb0.6Ca0.4Cu3O6.14,46
Sr2Cu1F2O2,46
Eu1.5Ce0.5Ru1Sr2Cu2O10,46
Y1Ba2Cu0.95Zn0.05O7.95,46
Yb0.6Pr0.4Ba1.7Sr0.3Cu3O6.93,46
Hg0.5Fe0.5Sr2Y0.6Ca0.4Cu2O6.7,46
Er1Ba2Cu2.78Zn0.18Fe0.03O6.93,46
Er1Ba2Cu2.85Zn0.06Fe0.09O6.96,46
Eu1Ba1.8Pr0.2Cu3O6.69,46
Y0.8Pr0.2Ba2Cu3.975Fe0.025O8,46
Nd1Fe1As1F0.16O0.84,46
Nd1Fe1As1F0.3O0.7,46
Ce1Fe1As1F0.3O0.7,46
Sm0.8U0.2Fe1As1O1,46
Na1Fe2Se2,46
Ca0.1Ba1.65La1.25Cu3O7.08,45.9
Gd1Fe1As1H0.3O0.7,45.9
Er0.6Pr0.4Ba2Cu3O7,45.8
Nd0.95Pr0.05Ba2Cu3O6.75,45.8
Ce1Fe1As1H0.6O0.6,45.8
Sm1Fe0.99Ni0.01As1F0.12O0.88,45.7
La1.25Ca0.15Ba1.6Cu3O7.052,45.6
Ce1Fe1As1H0.2O0.8,45.6
Y1Ba2Cu2.85Zn0.15O7,45.53
C0.5Sr2.01Ca0.44Y0.55Cu2.44O6.94,45.5
Y1Ba2Cu3O6.51,45.4
Y1Ba2Cu3.96Ni0.04O8,45.4
Y0.6Pr0.4Ba2Cu3O6.98,45.4
Y1Ba2Cu3O6.45,45.4
Ca0.891La0.109Fe2As2,45.4
Nd1Fe1As1F0.1O0.9,45.4
Tl2Ba2Cu1O6.19,45.3
Y0.6Pr0.4Ba2Cu3O6.95,45.3
Y0.6Pr0.4Ba2Cu3O6.929,45.3
Y0.6Pr0.4Ba2Cu3O7,45.3
Ca0.858Pr0.142Fe2As2,45.3
La1.3Ba1.3Sr0.4Cu3O6.928,45.2
Y0.8Pr0.2Ba2Cu3O6.85,45.2
Fe0.5Ba1Sr1Ho1Cu2.5O7.462,45.2
La2Cu1O4.086,45.2
Y1Fe1As1O0.85,45.2
La1.2Ba1.3Sr0.5Cu3O6.943,45.1
Y1Ba2Cu2.87Al0.13O7,45
Y1Ba2Cu2.865Al0.135O7,45
Y1Ba2Cu2.8Ni0.2O6.82,45
Y1Ba2Cu2.8Zn0.2O6.79,45
Y1Ba2Cu2.7Zn0.3O6.74,45
La1Ba2Cu2.9O6.8,45
Y1Ba2Cu3O6.46,45
La1Ba2Cu2.9O6.82,45
La1.8Sr0.2Ca1Cu2O6,45
La1Ba1Ca1Cu2.9Ni0.1O6.85,45
Bi2Ca2.5Pr0.5Cu2O8.53,45
Y1Sr2Cu2.8W0.2O6.9,45
La2Cu1O4.11,45
Y2Tl2Sr2Cu3O11,45
Sm1Ba2Cu3O6.73,45
Y0.6Ca0.4Sr1.8Ba0.2Cu2Ga1O7,45
Hg0.8W0.2Ba2Cu1O4.4,45
Nd1.2Ba1.6Sr0.2Cu3O6.885,45
Tl1Sr1.8Ca0.2Yb1Cu2O7,45
La2Cu1O4.021,45
Lu0.7Ca0.3Ba2Cu3O6.88,45
Y0.84Sr2.16Cu2.78S0.22O7,45
Bi1.6Pb0.4Sr2Cu3Ca2O10.04,45
La2Cu1O4.093,45
Sr2Y1Ru0.5Cu0.5O6,45
Tl1Ba1.2La0.8Cu1O5,45
Y0.6Pr0.4Ba1.4Sr0.6Cu3O6.83,45
La2Cu1O4.06,45
La2Cu1O4.065,45
La2Cu1O4.075,45
La2Cu1O4.08,45
Y1Ba2Cu3F1.11O6,45
Hg1Ba2Cu1O4.07,45
Sm0.8Ca0.2Ba2Cu2.8Zn0.2O6.87,45
La1.3Ba1.5Ca0.2Cu3O6.92,45
Ru1Sr2Gd1Cu2O8,45
Y1Ba2Cu2.97Zn0.03O6.63,45
Y1Ba2Cu2.91Zn0.09O6.83,45
La0.65Ca0.15Pr0.2Ba1.5Sr0.5Cu3O6.84,45
Sr2Y1Ru0.9Cu0.1O6,45
Ru1Sr2Gd1.4Ce0.6Cu2O10,45
Y0.8Ca0.2Sr1Ba1Cu2.8B0.2O7,45
S2Ti1,45
Sm1Fe1As1F0.18O0.82,45
Tb0.9Th0.1Fe1As1O1,45
Sm1Fe1As1F0.2O0.8,45
Dy1Fe1As1F0.1O0.9,45
Pr1Fe1As1F0.11O0.89,45
Gd4Fe2As2Te0.92F0.8O3.2,45
Y1Ba2Cu3O6.45,45
Sm1Fe1As1H0.43O0.57,45
Sm1Ba2Cu3O6.73,44.9
Ce1Fe1As1H0.3O0.7,44.9
Y0.6Pr0.4Ba2Cu3O6.929,44.8
Sm1Ba2Cu3O6.554,44.7
Y0.74Ca0.26Ba2Cu3O6,44.7
Yb0.7Ca0.3Ba1.6Sr0.4Cu3O6.78,44.6
Y1Ba2Cu3.92Ni0.08O8,44.6
Y0.65Pr0.35Ba2Cu3O7.01,44.5
Gd1Ba1.8Pr0.2Cu3O7.01,44.5
Pr1Fe1As1O0.896,44.4
Y0.6Pr0.4Ba2Cu3O6.76,44.3
Y1Ba1.8La0.2Cu3O6.7,44.3
Ru1Sr2Eu1.5Ce0.5Cu2O10,44.3
Y1Ba2Cu3.925Fe0.075O8,44.2
Y1Ba1.54La0.46Cu3O7.118,44.1
Y0.9Pr0.1Ba2Cu3O6.6,44.1
La1.7Sr0.3Ca1Cu2O6,44
Y1Sr2Cu2.7Re0.3O7.2,44
Nd2Tl2Sr2Cu3O11,44
Y1Sr1Ba1Cu2.5B0.5O7,44
Dy0.9Ce0.1Ba2Cu4O8,44
Y1Ba2Cu2.9Ni0.1O6.77,44
Ca1La1Ba1Cu2.94Fe0.06O7,44
Sr0.9Nd0.1Cu1O2,44
Sr0.9Gd0.1Cu1O2,44
Sr0.9Sm0.1Cu1O2,44
Y1Ba2Cu2.94Zn0.06O6.77,44
Y0.6Pr0.4Ba1.6Sr0.4Cu3O6.87,44
Y1Ba1.8La0.2Cu4O8,44
Dy1Ba2Cu2.9Zn0.1O6.96,44
Y1Ba2Cu3.96Ni0.04O8,44
Er1Ba2Cu2.79Zn0.03Fe0.18O6.97,44
La0.9Pr0.1Ba1.5Sr0.5Cu3O6.904,44
Ru1Sr2Eu1.4Ce0.6Cu2O10,44
Bi0.1Pb0.4La1.2Sr1.3Cu2O5.78,44
Pr1Fe1As1O0.6,44
Ce0.62Gd0.38Fe1As1F0.175O0.825,44
Pr1Fe1As1O0.7,44
Dy1Fe1As1O0.7,44
Y0.8Ca0.2Ba2Cu2.8Zn0.2O6.74,44
Li1Fe2Se2,44
Ca0.857La0.143Fe2As2,44
Pr1Fe1As1F0.1O0.9,44
Y1Ba2Cu2.8Fe0.2O6.8,43.9
Ca0.4Ba1.15La1.45Cu3O7.21,43.9
La1.3Ba1.5Sr0.2Cu3O6.901,43.8
Y1Ba2Cu3H0.53O6.54,43.8
Tb1Fe1As1O0.82,43.8
Sm1.28Ba1.72Cu3O7.03,43.6
Y1Ba2Cu3O6.47,43.6
Y0.85Ca0.15Sr1Ba1Cu2.5B0.5O7,43.6
Bi4Sr3Ca2Y1Cu4O16,43.5
Y1Ba2Cu2.85Zn0.15O7,43.5
Y1Ba2Cu2.95Fe0.05O6.69,43.5
Y1Ba2Cu3O6.58,43.5
Nd1.2Ba1.8Cu3O7.1,43.5
Y1Ba2Cu2.9Zn0.1O6.99,43.5
Y0.8Ca0.2Ba2Cu3O6.03,43.5
Fe1Sr2Y1Cu2O7.66,43.5
Sm1Fe1As1F0.3O0.7,43.5
Bi2Sr2Ca0.6Pr0.4Cu2O8,43.4
Sm1Fe1As1H0.066O0.934,43.3
Ru1Sr2Gd0.6Dy0.4Cu2O8,43.25
Y1Ba2Cu2.85Zn0.15O7,43.2
Y1Ba2Cu2.94Ni0.06O6.64,43.1
Y1Sr2Cu2.85Re0.15O6.95,43.1
Ba1.4Sr0.6Yb1Cu3O6.66,43.1
Ce1Fe1As1H0.4O0.6,43.1
Y1Sr2Cu2.8Re0.2O6.9,43
Y1Sr2Cu2.7Mo0.3O7.1,43
Y1Sr2Cu2.65Mo0.35O7.4,43
Y1Sr2Cu2.7Fe0.3O6.9,43
La1.9Sr0.1Ca1Cu2O6.03,43
Y0.8Zn0.2Ba2Cu3O7,43
Pr2Tl2Sr2Cu3O11,43
Sr0.92Sm0.08Cu1O2,43
Sr0.9La0.1Cu1O2,43
La2Cu1O4.12,43
Y0.85Ca0.15Ba2Cu2.85Zn0.15O6.85,43
Y0.8Ca0.2Ba2Cu2.8Zn0.2O6.73,43
Y0.9Ca0.1Ba1.6La6Cu3O7.18,43
Tl1Sr2Ca1Cu2O6.74,43
Tl1Sr2Ca1Cu2O6.58,43
Bi1.8Pb0.2Sr2Ca1Cu1.92Co0.08O8,43
Tl1Sr2Ba2Cu2C0.9N0.1O10,43
Tl1Sr1.8Cr0.2Cu1O5,43
La1.35Ba1.5Ca0.15Cu3O6.67,43
Eu1Ba2Cu2.85Ga0.15O6.76,43
Y1Ba2Cu2.88Ni0.12O7,43
Sr0.9Gd0.1Cu1O2,43
Y1Ba1.8Cu2.8Co0.2O6.95,43
Bi1.6Sr0.4Yb0.65Ca0.35Cu3O6.075,43
Er1Ba2Cu2.73Zn0.24Fe0.03O6.92,43
Ru0.8Sr2Y1Cu2.2O7.8,43
Ru1Sr2Gd1Cu2O8,43
Ca1.8Cu1Cl2O2,43
Gd0.9Ca0.1Ba1Sr1Cu3O6.8754,43
Nd0.8Th0.2Fe1As1O1,43
Fe2As2Ca4Mg0.75Ti2.25O7.5,43
Pr1Fe1As1F0.1O0.9,43
Ca0.85La0.15Fe1As1.98Sb0.02,43
Ca0.76Ce0.24Fe1As1.8Sb0.2,43
Ca0.76Pr0.24Fe1As0.9Sb0.1,43
Ca0.84Nd0.16Fe1As0.9Sb0.1,43
Y1Ba2Cu2.961Zn0.039O6.78,42.9
Y0.6Pr0.4Ba2Cu3O6.98,42.8
Li1Fe3Se2O2,42.8
Sr0.9La0.1Cu1O2,42.7
Sm1Fe0.95Ru0.05As1F0.15O0.85,42.7
Ce1Fe1As1O0.85,42.6
Sr0.9La0.1Cu1O1.96,42.5
Ba2Cu1O4,42.5
Sr0.95La0.05Cu1O2.01,42.4
Sr0.88La0.12Cu1O1.97,42.4
Ru1Sr2Gd1Cu2O8,42.4
Sm1Fe1As1F0.15O0.85,42.3
Sm0.9Pr0.1Ba2Cu3O6.85,42.2
K0.8Fe1.97Mn0.03Se2,42.2
Bi2Sr2Ca1Cu2O8.428,42.1
Y1Ba2Cu3H0.64O6.54,42.05
Y1Ba2Cu2.6Al0.4O7,42
Pb1Sr0.8Ba1.2Y0.7Ca0.3Cu3O8.41,42
Eu1.2Ba1.8Cu3O7.18,42
Y0.75Ca0.25Ba2Cu2.75Zn0.25O6.76,42
Y1Sr2Cu2.8Re2O7,42
La2.77Ca0.46Ba2.77Cu6O14.246,42
Y1Ba2Cu3O6.6,42
La2Cu1O4.11,42
Sr0.9La0.1Cu1O2,42
Y1Ba2Cu2.85Zn0.15O7,42
La2Cu1O4.06,42
La2Cu1O4.08,42
La2Cu1O4.09,42
Sm0.9Ca0.1Ba2Cu2.8Zn0.2O6.85,42
La2Cu1O4.022,42
Er1Ba2Cu2.79Zn0.12Fe0.09O6.95,42
Eu0.5Sr0.5Ba1.6Pr0.1Cu3O7.07,42
Sr0.9La0.1Cu0.99Zn0.01O2,42
Gd1.2Ba1.8Cu3O7.03,42
Ga0.8Sr2Y0.6Ca0.4Cu2.2O7,42
Sm1Fe1As1F0.09O0.91,42
Tb1Fe1As1O0.85,42
Sm1Fe1As1F0.2O0.8,42
Fe2As2Ca4Mg0.75Ti2.25O7.5,42
Yb0.8Fe2Se2,42
Li0.84H1Fe1.14Se1O1,42
Y1La1.8Ba3.2Cu6O14.49,41.9
Ca0.1Ba1.65La1.25Cu3O7.06,41.9
Sr0.9La0.1Cu1O2,41.9
Y0.9Ca0.1Ba2Cu3O6.4,41.8
Sm1Fe1As1F0.15O0.85,41.8
Ca0.923Nd0.077Fe2As2,41.8
Sm1Fe1As1F0.15O0.85,41.7
Y1Ba2Cu3.92Mn0.08O8,41.6
La1.8Sr0.2Cu1O4,41.5
Tl1Ba1Sr1Cu1O5,41.5
La1Ba1Sr1Cu3O7.01,41.5
Y0.8Pr0.2Ba2Cu3O6.75,41.5
Sr0.9Pr0.1Cu1O2,41.5
C60,41.5
Sm1Fe1As1F0.1O0.9,41.5
Sm1Fe1As1F0.15O0.85,41.5
Ca0.5Nd0.5Ba1La1Cu3O7.17,41.4
Nb0.6Ru0.6Sr2Eu1.5Ce0.5Cu2O10,41.4
B2Mg0.988Sc0.012,41.4
Nd1Fe1As1F0.3O0.7,41.4
Y1Ba2Cu2.85Ni0.15O6.78,41.3
Nd0.85Pr0.15Ba2Cu3O6.85,41.3
Bi1.7Pb0.3Sr2Ca0.55Y0.45Cu1.94Zn0.06O8,41.3
Bi1.7Pb0.3Sr2Ca0.5Y0.5Cu2O8,41.3
La2Cu1O4,41.2
Y1Ba2Cu3O6.5,41.2
Dy0.6Pr0.4Ba2Cu3O6.9,41.2
La1.828Sr0.172Cu1O4,41.2
Y2Ba4Cu7O14.6,41.2
Ca0.835La0.165Fe2As2,41.2
Tl1Ba1.2La0.8Cu1O5,41.1
Y1Ba2Cu2.94Zn0.06O6.76,41.1
C0.48Sr2Ca0.4Y0.6Cu2.46O6.97,41.1
Ca0.2Ba1.55La1.25Cu3O7.05,41.1
Ce1Fe1As1H0.065O0.935,41.1
Gd1Ba2Cu2.7Fe0.3O6.9,41
Gd1Ba2Cu2.82Fe0.18O6.91,41
Bi2Sr2Ca0.5Y0.5Cu2O8,41
Bi2Sr2Ca0.6Pr0.4Cu2O8,41
Bi1.5Ga0.5Sr1.8Ca1.2Cu2O8,41
Bi1.6Pb0.4Sr4Cu2C1O11,41
Y0.6Ca0.4Sr2Cu2Ga1O7,41
Y0.7Ca0.3Sr1.5Ba0.5Cu2.8Cr0.2O7,41
Y0.6Ca0.4Sr2Ga1Cu2O7,41
La1.8K0.2Cu1O4,41
Nd1.2Ba1.4Sr0.4Cu3O6.789,41
Lu0.8Ca0.2Ba2Cu3O6.13,41
Nd1.4Pr0.6Ba4Cu7O14.541,41
Ba1.6Sr0.4Yb0.7Ca0.3Cu3O6,41
Cu0.5C0.5Sr2Ca1Cu5O10.8,41
La2.5Y0.5Ca1Ba3Cu6.16Fe0.84O16.634,41
Sm0.8Pr0.2Ba2Cu3O6.95,41
Y1Ba2Cu2.97Zn0.03O6.68,41
Yb0.55Pr0.45Ba1.7Sr0.3Cu3O6.88,41
Y1Ba2Cu2.97Li0.03O6.6,41
Eu0.7Pr0.3Ba2Cu3O6.66,41
Ru1Sr2Gd1Cu2O8,41
Ga0.9Sr2Y0.6Ca0.4Cu2.1O7,41
Mg1B1.8C0.2,41
Ce1Fe1As1F0.16O0.84,41
Sm1Fe1As1F0.15O0.85,41
La1.82Sr0.18Cu1O4,41
Ca0.84La0.16Fe1As1.99P0.01,41
Y1Ba1Sr1Cu2.75Sn0.25O7.163,40.9
Y1Ba1Sr1Cu2.75Sn0.25O7.16,40.9
La1.847Sr0.153Cu1O4,40.9
Li0.8Fe1.2Se1H1O1,40.9
Y1Ba2Cu3O6.37,40.87
Sr0.9La0.1Cu1O2,40.8
Y1Ba2Cu3.84Fe0.16O8,40.8
Ru1Sr2Gd1Cu2O8,40.75
Sr0.9La0.1Cu1O2,40.7
Nd0.85Pr0.15Ba2Cu3O7,40.7
Yb0.7Ca0.3Ba1.6Sr0.4Cu3O6.78,40.7
Ce1Fe1As1F0.16O0.84,40.7
Sr0.9La0.1Cu1O2,40.6
Y0.8Ca0.2Ba2Cu3O6.3,40.6
Ca0.8La0.2Fe1As1H1,40.6
Y1Ba2Cu3.92Zn0.08O8,40.5
La1Ba2Cu2.95Co0.05O6.94,40.5
Ru1Sr2Gd1Cu2O8,40.5
Y0.4Pr0.6Ba2Cu4O8,40.5
B2Mg1,40.5
Li1.84H1Fe1.14Se1O1,40.5
La2Cu1O4.07,40.4
Ce1Fe1As1F0.2O0.8,40.4
B2Mg1,40.36
Ru0.97Ti0.03Sr2Gd1Cu2O8,40.3
B2Mg1,40.25
B2Mg1,40.23
B2Mg1,40.21
B2Mg1,40.2
Ce1Fe1As1O0.7,40.2
La0.5Y0.5Fe1As1F0.15O0.85,40.2
Y1Ba2Cu2.94Ni0.06O6.6,40.1
Lu0.5Pr0.5Ba2Cu3O6.75,40.1
Ca0.4Ba1.35La1.25Cu3O6.98,40.1
Sm1Fe1As1O0.8,40.1
Nd1Fe0.98Co0.02As1F0.11O0.89,40.1
Y1Ba2Cu3O6.48,40.05
Y1Ba2Cu2.7Ni0.3O6.97,40
Gd1Ba2Cu2.73Fe0.27O6.98,40
Y1Ba2Cu3O6.45,40
Bi2Sr2Ca0.5Y0.5Cu2O8.33,40
Y0.6Pr0.4Ba2Cu3O6.97,40
La2Cu1FO4,40
Y1Ba2Cu3O6.53,40
Tl1Ba2Ca0.5Nd0.5Cu2O6.86,40
Sr0.84Nd0.16Cu1O2,40
Pb0.8Sr1Ba1.2Y0.7Ca0.3Cu3O7.59,40
Y1Sr2Cu2.8Mo0.2O7,40
La1.99Sr0.01Cu1O4.13,40
La1.98Sr0.02Cu1O4.09,40
La1.96Sr0.04Cu1O4.05,40
La1.25Ba1.75Cu3O7.07,40
C0.47Sr2Ca0.35Y0.65Cu2.48O6.96,40
Bi2Sr8Cu4C3O21,40
Sr2Cu1F2O2,40
Hg1Ba2Cu1O4.36,40
Nd1.2Ba1.4Ca0.4Cu3O6.888,40
La0.7Pr0.3Ca1Ba1Cu3O7,40
Y0.4Pr0.6Ba2Cu4O8,40
Pb0.5Tl0.5Sr4Cu2C0.9N0.1O10,40
La1Ba1Cu2.88Co0.12O7,40
Y1Ba2Cu3O6.54,40
La1.82Ca1.16Y0.02Cu2O6,40
Sr0.86Nd0.14Cu1O2,40
Sr0.84Nd0.16Cu1O2.01,40
Hg0.75Mo0.25Ba2Cu1O4.51,40
Tl2Ba2Cu1O6.056,40
La1.9Sr0.1Cu1O4.018,40
La1.9Sr0.1Cu1O4.023,40
La1.85Sr0.15Cu1O4.022,40
La1.85Sr0.15Cu1O4.03,40
Tl1Sr2Ca1Cu2O6.825,40
La1.8Er0.2Ba2Ca0.4Cu4.4O10.371,40
Y1Ba2Cu2.97Zn0.03O6.63,40
Eu0.6Pr0.4Ba2Cu4O8,40
Tl1Ba1.3La0.7Cu1O5,40
Y0.6Pr0.4Ba2Cu3O7,40
Hg1Ba2Cu1O4.37,40
Fe0.5Ba1Sr1Tm1Cu2.5O7.432,40
La1Ba1.5Ca0.5Cu3O6.79,40
La1.4Ba1.5Ca0.1Cu3O6.943,40
La1.5Ba1.1Ca0.4Cu3O6.969,40
La1.86Sr0.14Cu1O4,40
La0.7Ca0.1Pr0.2Ba1.5Sr0.5Cu3O6.862,40
Tl0.5Pb0.5Sr2Eu1.8Ce0.2Cu2O9,40
Eu1.4Ce0.6Ru1Sr2Cu2O10,40
La2Cu0.985V0.015O4.021,40
La2Cu0.975V0.025O4.032,40
La2Cu0.965V0.035O4.045,40
La2Cu0.955V0.045O4.056,40
Ga1Sr2Tm0.7Ca0.3Cu2O7,40
B2Mg1,40
Cs3C60,40
Sr2Ca4Cu5F2O10.57,40
Sm1Fe1As1F0.15O0.85,40
Ce1Fe1As1F0.12O0.88,40
La1Fe1As1F0.6O0.4,40
Ba2Ca1Cu2F2.2O3.8,40
Sr2V1Fe1As1O2.9,40
Nd1Fe0.9Ru0.1As1F0.11O0.89,40
Ca0.8La0.2Fe2As2,40
Ca8Mg1.5Ti4.5Fe2As2O9.5,40
Ca0.902Pr0.098Fe2As2,40
Sm4Fe2As2Te0.72F1.2O2.8,40
Li0.8Fe1.2Se1H1O1,40
K1Fe2Se2,40
Ca0.5Fe2Se2,40
Eu1Fe2Se2,40
Fe1Se1,40
Li0.8Fe1.2H1Se1O1,40
Li0.88Fe1.12Se1H1O1,40
Zr1P1.4S0.6,4.99
Ir3Th1,4.99
La1.72Sr0.28Cu1O4,4.98
Ba1Pt4Ge12,4.98
Bi2Pd1,4.98
Ir1Ti3,4.97
Zr2Co0.7Ga0.3,4.97
Zr0.75Y0.25P1S1,4.97
Pr1Fe0.95Co0.05As1O1,4.96
Nd1Bi1S2F0.5O0.5,4.95
Sr3Ir4Sn13,4.95
Nb0.92Ta0.71,4.94
La1,4.94
Ge1,4.94
Hf1Ru1As1,4.93
Ba1Ge2,4.93
Bi2Pd1,4.93
Bi2.95Y0.05S3O2,4.93
Pb1Mo6S2Se6,4.92
Ce0.84Y0.16Ru2,4.92
Cu0.005V0.995,4.92
Ru0.46V0.54,4.92
Zr0.9Mo0.1,4.92
H0.28Mo0.15Nb0.68Pd0.17,4.92
Nb0.31Re0.69,4.92
Cu30Sn70,4.91
Mo13Zr87,4.91
Mo0.07Zr0.93,4.91
Zr2Co0.75Ni0.25,4.91
Mg1C1Ni2.967Fe0.033,4.9
Ti55Nb30Si15,4.9
Li2B1Pd2.4Pt0.6,4.9
Ba1,4.9
Ge0.55Nb3.45,4.9
Nb0.04Zr0.96,4.9
Pd0.165Sb0.835,4.9
Re0.6W0.4,4.9
Re0.7W0.3,4.9
Ce1Ru2,4.9
Nb1.5Mo1.5Al1,4.9
Sc5Co4Si10,4.9
Tb0.25Er0.75Ni2B2C1,4.9
Er0.75Tb0.25Ni2B2C1,4.9
Nb0.69V0.31,4.9
Ta0.0082V0.9918,4.9
La1,4.9
Pd2Sn1Y1,4.9
Np1Pd5Al2,4.9
Sr1Ga1Si1,4.9
La2.9Ce0.1Ni2B2N2.7,4.9
Ba1Fe1.946Mo0.056As2,4.9
Li1Fe1P1,4.9
Pd16.5Sb83.5,4.9
Nd0.8Sm0.2Bi1S2F0.3O0.7,4.9
Nd0.8Sm0.2F0.3Bi1S2O0.7,4.9
Bi2S2F0.5O0.5,4.9
Ba1Pt4Ge12,4.9
Pd1Bi1.92Pb0.08,4.9
Hf1P1.55S0.45,4.9
Zr2Co0.75Cu0.25,4.89
Ce0.7Th0.3Ru2,4.89
Nb5Ir0.2Pt2.8O1,4.89
Ir45Nb55,4.88
Lu4.5Th0.5Ir4Si10,4.88
La0.7Th0.3,4.88
La1Ru1Cr0.21Si2,4.88
Zr0.6Y0.4P1S1,4.88
La1.8Nd0.2Cu0.99Zn0.01O4.0631,4.87
Hf1V2H1,4.87
Bi3.875Ni0.125S3O4,4.87
La1,4.86
N1Ti1,4.86
Nb1.05Se2,4.86
Ta1Rh1P1,4.86
Th1Ir1.8Ru0.2,4.86
Pr0.95Sr0.05Fe1As1O1,4.86
Li1Fe1P1,4.86
Ca0.75Sr2.25Rh4Sn13,4.86
Ta1Os1Si1,4.855
Fe0.008La0.992,4.85
Cu0.67Nb2S2C1,4.85
Sn0.7Mo3Se4,4.85
Pd0.074Ti0.926,4.85
Zr1P1.25S0.75,4.85
Nd1Bi0.99Pb0.01S2F0.3O0.7,4.85
Ba1,4.85
Hf0.7Lu0.3P1.45S0.55,4.85
N1Ta1,4.84
Y0.75Gd0.25Ni2B2C1,4.84
Lu0.8Gd0.2Ru1B2,4.84
Bi2Pd1,4.84
Ca0.75Sr2.25Rh4Sn13,4.84
Lu1.94Sc0.06Fe3Si5,4.83
Nd1Bi0.9Pb0.1S2F0.3O0.7,4.83
Al0.005V0.995,4.82
Pd0.15Ti0.85,4.82
H0.46Mo0.1Nb0.72Pd0.18,4.82
Sr1Pt1.8Pd1.2P1,4.82
Na0.31Co1H2.6O3.3,4.81
Na0.346Co1H2.6O3.3,4.81
La2.85Pr0.15Se4,4.81
Bi2Pd1,4.81
Hf0.8Lu0.2P1.55S0.45,4.81
Hf0.6Y0.4P1.55S0.45,4.81
Na0.35Co1H2.6O3.3,4.8
Sr2Ca12Cu24O41,4.8
Na0.3Co1H2.6O3.3,4.8
Y3Dy2Os4Ge10,4.8
Ti60Nb25Si15,4.8
Ti54Nb30Si16,4.8