formula,Tc
Mg0.6Zn0.2Al0.2B2,7.500
La1Ru3Si2,7.500
Ti0.6V0.4,7.500
B6Y6,7.500
Mo2B1C1,7.500
Mo3Sb7,7.500
Nb2In1C1,7.500
Ir1Zr2,7.500
Ba1Fe1.856Ni0.144As2,7.500
Sm1Fe0.96Ni0.04As1O1,7.500
B6Y1,7.500
La0.99Y0.01Fe0.995Mn0.005As1F0.11O0.89,7.500
Sr1Pt3P0.6Si0.4,7.500
Ba8Si46,7.500
Ca2.25Sr0.75Rh4Sn13,7.500
W3Al2C1,7.500
Nd0.8Sr0.2Ni1O2,7.500
Fe1Se0.85S0.15,7.500
Ti0.415V0.585,7.490
Ca10Pt3.981Fe9.019As18,7.490
Li2Pd3B0.9Al0.1,7.490
Ir0.19Rh0.75Se2,7.490
Tc1,7.460
Ti0.2V0.8,7.460
Li2Pd3B1,7.460
Pr1Fe0.9Co0.1As0.5P0.5O1,7.460
Ti0.4V0.6,7.460
B2.5Mo1,7.450
In0.5Sn0.5,7.450
Pb0.57Sn0.43,7.450
Re0.88Mo0.12,7.450
Ho0.97La0.03Ni2B2C1,7.440
Zr1Os1P1,7.440
Nb0.720Ga0.234Mn0.047,7.420
Mg1C1Ni2.95Co0.05,7.420
Nb0.8Ta0.2,7.420
Pr0.95Eu0.05Pt4Ge12,7.410
Nb5Ir1Pt2O1,7.410
La1.86Ba0.14Cu1O4,7.400
K0.85Bi1.15O3,7.400
C2Mo3,7.400
Fe0.04Nb0.1Ti0.86,7.400
Nb0.25Ti0.75,7.400
Re6Zr1,7.400
V3Si0.46Ga0.54,7.400
V1.5Nb1.5Sb1,7.400
Nb3Rh0.3Pt0.7,7.400
Nb0.147Ti0.847Zr0.006,7.400
Nb0.027V0.497Ti0.476,7.400
Nb0.141Ti0.856Ta0.003,7.400
Nb0.151Ti0.820Mo0.029,7.400
Nb3Al0.15Ge0.85,7.400
Y0.78Gd0.22Ni2B2C1,7.400
Mg1C1.25Ni3,7.400
Te1,7.400
C1,7.400
Mo0.7Pt0.075Re0.225,7.400
Mo0.65Pt0.1Re0.25,7.400
Er1Ni1.96Fe0.04B2C0.99,7.400
Er1Pb2,7.400
Li2Pd2.7Ni0.3B1,7.400
Ba1Fe1.945Ni0.055As2,7.400
La1Fe1P1O1,7.400
Sr1Fe1.8Ni0.2As2,7.400
Nb1Se2,7.400
Ba1Fe1.924Co0.076As2,7.400
Ba1Fe1.948Mo0.052As2,7.400
Na1Al1Si1,7.400
Zr1Os1P1,7.400
B6Y1,7.400
La1Fe2As2,7.400
H0.985Pd1,7.390
Tm1Ni1.92Fe0.08B2C1,7.390
Ba0.1K0.9Fe2As2,7.390
Fe1Se0.75S0.25,7.390
Nb1Se2,7.380
H0.1Nb0.9,7.380
Ca10Pt3.41Fe9.59As18,7.380
Er1Ir2Rh2B4,7.370
Bi0.06Pb0.95,7.350
Bi0.4Sn0.6,7.340
Sc1Ru4B4,7.340
Lu0.9Dy0.1Ru1B2,7.340
Ca2.25Sr0.75Rh4Sn13,7.340
Hf1V2H0.5,7.330
Nb0.5Hf0.5N0.98,7.330
Nb0.894O0.106,7.330
Er0.46Ho0.54Rh4B4,7.320
La1Fe1P1O1,7.320
Ca2.25Sr0.75Rh4Sn13,7.320
Mo0.453Ru0.108P0.439,7.310
Er1Ni1.965Fe0.035B2C1,7.310
Lu0.8Tm0.2Ru1B2,7.310
Ba8Si46,7.310
Hf0.97V0.03B2,7.310
Eu1.85Ce0.15Cu1O3.98,7.300
Nd1.85Ce0.15Cu0.995Co0.005O4,7.300
La1.85Sr0.15Cu0.975Zn0.025O4,7.300
La2Cu0.97Zn0.03O4.1,7.300
Li2Pd2.7Ni0.3B1,7.300
Ca1Al1Si1,7.300
W7Re13C1,7.300
Hf0.025Re0.975,7.300
In0.7Sn0.3,7.300
Nb1Se2,7.300
Rh0.3W0.7,7.300
Nb3Ge0.5Ga0.5,7.300
Nb3Al0.39Ge0.61,7.300
Ga0.5Ge0.5Nb3,7.300
Nb0.149V0.272Ti0.579,7.300
Nb0.147Ti0.847Mo0.006,7.300
Mg1C1.25Ni3,7.300
Mg1C0.978Ni3,7.300
Er1Ni1.96Fe0.04B2C0.99,7.300
Lu0.88Gd0.12Ni2B2C1,7.300
Ti0.4V0.6,7.300
Bi0.8Sn0.2,7.300
Ti2In1N1,7.300
Mg1.2C1.6Ni3,7.300
Ba0.84K0.16Fe2As2,7.300
Bi3La1,7.300
Ta1As1,7.300
Mg1C1Ni2.9Co0.1,7.290
Pb0.99Sb0.01,7.290
H0.33Nb0.67,7.280
Lu0.8Tm0.2Ru1B2,7.280
Fe1Te0.75S0.25,7.280
Ba0.8K0.2Fe2As2,7.280
Pr0.85Eu0.15Pt4Ge12,7.280
Ag0.15Pb0.975Sn0.01,7.250
Nb0.95W0.05,7.250
Bi1,7.250
K0.05Mo1O1.63,7.250
Sb2Te3,7.240
Ir1Zr2,7.230
Pb1,7.220
La1Fe1P1O1,7.220
Bi0.011Pb0.99,7.214
Pb0.977Sn0.023,7.213
Nb0.21Ti0.61Zr0.18,7.210
Er1Ni1.96Fe0.04B2C1,7.210
Ba0.6K0.4Bi0.5Pb0.5O3,7.200
Ba0.8K0.2Bi0.3Pb0.7O3,7.200
Ca1.88Na0.12Cu1Cl2O2,7.200
Ba0.4K0.6Bi1O3,7.200
U0.9Np0.1Co1Ga5,7.200
Ba6Sr2Si46,7.200
La1Ru4P12,7.200
La0.7Th0.3Ni1C2,7.200
Al0.1Be0.9,7.200
Li1Pb1,7.200
Pb1Pt1,7.200
Sb0.25Ti0.75,7.200
Ti0.516V0.484,7.200
Mo3O5,7.200
Nb0.26Re0.74,7.200
V3Si0.4Ge0.6,7.200
Mo3Os1,7.200
Na0.28Pb0.72,7.200
Nb0.147Ti0.853,7.200
Nb0.169Ti0.658Zr0.173,7.200
Er1Ni0.973Co0.054B2C1,7.200
Ho1Ni1.998Co0.004B2C1,7.200
Yb3Rh4Sn13,7.200
Sc1Ru4B4,7.200
Mg1Cu1Ni3,7.200
Mg1C1Ni2.8Co0.2,7.200
Mg1C1Ni3,7.200
V3Ga0.7Sn0.3,7.200
Th1.4Sc0.6C3,7.200
Re0.8V0.2,7.200
Nb1Se2,7.200
Pb1,7.200
Fe1Se0.92,7.200
Ba1Fe2As1.6P0.4,7.200
Sr1Fe1.86Co0.14As2,7.200
Bi1La1,7.200
Fe1Se0.83S0.17,7.200
Nb1Ir2B2,7.200
Pb1,7.190
Mo0.61Ru0.39,7.180
Tc0.4W0.6,7.180
La1Fe0.95Ir0.05As1O1,7.180
La1Ru3Si2,7.180
Pb0.9Sn0.1,7.170
Nb1Se2,7.170
Nb0.7Ta0.3,7.170
Pb1,7.170
Rb1Cr3As3,7.170
Ba1Fe1.866Pd0.134As2,7.160
B6Y1,7.150
Nb1Se2,7.150
Nb0.745Sn0.045Al0.064Ge0.146,7.150
In0.02Pb0.98,7.150
Ti0.2V0.8,7.150
Ti0.6V0.4,7.150
Ga4Mn0.006Mo0.994,7.140
Pb0.985Tl0.015,7.135
Hg0.031Pb0.969,7.134
Pb1Mo6S1Se7,7.130
Ca1Al1Si1,7.130
Nb1,7.130
Cd0.026Pb0.974,7.124
Pb0.9Zn0.1,7.120
Nb0.95V0.05N0.85,7.120
Mg1C1Ni3,7.120
Pr0.9Eu0.1Pt4Ge12,7.120
La2.958Ce0.042In1,7.110
Nb1Se2,7.110
La1Bi1S2F0.2O0.8,7.110
In0.029Pb0.971,7.109
Nb1Se2,7.100
Mg1C1Ni3,7.100
W7Re13B1,7.100
Li2Pd3B1,7.100
Al0.04Nb0.895O0.06,7.100
B1C1Mo2,7.100
B5Mo1.7Ti0.3,7.100
Si1,7.100
Sn0.65Tl0.35,7.100
Nb0.119Ti0.866Ta0.015,7.100
Nb0.056V0.510Ti0.434,7.100
Tb0.2Er0.8Ni2B2C1,7.100
Ho1Ni2B2C1,7.100
Al0.24Nb0.76,7.100
Nb0.743Ga0.210Mn0.047,7.100
Pb0.3Yb0.7Mo6Se8,7.100
Er0.8Tb0.2Ni2B2C1,7.100
Mg1C1Ni2.6Co0.4,7.100
Ba8Si43Ge3,7.100
Th1.2Sc0.8C3,7.100
La1Mo6S8,7.100
Mo6Se5Br3,7.100
Ti0.5V0.5,7.100
Ta0.745Zr0.255,7.100
Ca3Ir4Sn13,7.100
Ca1Al1Si1,7.100
Fe1Se1,7.100
Nd1Fe0.95Rh0.05As1O1,7.100
La1Fe1P1F0.06O0.94,7.100
Ba1Fe1.24Ru0.76As2,7.100
Mg1C0.925Ni3,7.090
Ti0.615V0.385,7.070
Mo0.96Co0.04Ga4,7.070
Sr0.065Bi2Se3,7.070
Pb0.96Tl0.04,7.060
Pb1Tl0.04,7.060
Pb0.28Sn0.72,7.050
Sn1Fe0.05Mo6S8,7.050
Nb1.01Se2,7.050
Pr0.8Sr0.2Fe0.95Co0.05As1O1,7.050
B12Li1.7,7.050
Hf1V1.85Fe0.15,7.040
La2C2Br2,7.030
Sc0.5V0.5,7.030
Nb1Se2,7.020
Pr1.85Ce0.15Cu0.993Ni0.007O4.065,7.020
La2.96Ce0.04In1,7.010
Bi2Se3,7.010
La1.869Ba0.131Cu0.99Ni0.01O4,7.000
Bi2Ca2.5Eu0.5Cu2O8.31,7.000
La1.8Sr0.2Cu0.96Ni0.04O4,7.000
Ba6C60,7.000
Sr2Cu1C0.96B0.04O5,7.000
Ge0.3Cu4Sr2Ca3O11.05,7.000
Bi2Sr2Cu1O6.175,7.000
Ba0.34K0.66Bi1O3,7.000
Ru1Sr1.94La0.06Eu1Cu2O8,7.000
Ba8Ge42Co4,7.000
La1Ru4P12,7.000
B5Mo1.7Ta0.3,7.000
B5Nb1.8Th0.2,7.000
Bi0.45Pb0.55,7.000
Bi0.6Sn0.4,7.000
C3Er0.8Th1.2,7.000
Co1Zr2,7.000
Mo0.6Ru0.4,7.000
Nb1Se2,7.000
Nb0.93Tc0.07,7.000
Re1,7.000
Rh0.33Ta0.66,7.000
Rh0.4Zr0.6,7.000
Sn1V3,7.000
Ti0.6V0.4,7.000
Al0.25Nb0.75,7.000
C1Hf0.25Nb0.75,7.000
Ca1Pb1,7.000
V0.497Ti0.476Zr0.028,7.000
Y1Ni1.9Ru0.1B2C1,7.000
La1Os1Ru3P12,7.000
La1Os2Ru2P12,7.000
La1Ru3Os1P12,7.000
La1Ru2Os2P12,7.000
Mg1C1Ni3,7.000
Na2Cs0.75C60,7.000
C70,7.000
Mo3P1,7.000
Y2I0.75Br1.25C2,7.000
Ge5La1,7.000
Mg1C0.977Ni3,7.000
Mg0.6Al0.4B2,7.000
Y1Fe4P12,7.000
V0.65Ge0.1Al0.25,7.000
Ho1Ni1.99Fe0.01B2C1,7.000
Nb1Se2.2,7.000
Th1.2Er0.8C3,7.000
Lu3Si5,7.000
Na1Al1Si1,7.000
Li2Pd3B1,7.000
Sr1,7.000
La1Mo6S8,7.000
Li2Pd2.7Ni0.3B1,7.000
Ba1Pt3Au1Ge12,7.000
Na0.9Fe1As1,7.000
Fe1Se0.8,7.000
La1Fe1As0.8P0.2O1,7.000
La0.9Y0.1Fe1As1F0.1O0.9,7.000
La1Fe1As1F0.055O0.945,7.000
Sr1Fe1.6Pt0.4As2,7.000
Ba0.4K0.6O3,7.000
Sr1Fe1.5Ru0.5As2,7.000
Ca3Ir4Sn13,7.000
Ba0.1K0.9Fe2As2,7.000
Fe1Se0.93,7.000
Sn0.05Fe1Se0.93,7.000
Sn0.1Fe1Se0.93,7.000
Au0.1Sb0.9,7.000
Nb0.6Al0.08N0.79O0.21,7.000
Ti0.7V0.3,7.000
Ba0.833K0.167Fe2As2,7.000
Sr1Pt3P0.4Si0.6,7.000
La1Ru2As2,7.000
Te2W1,7.000
Bi2Te3,7.000
Ba1Re1H9,7.000
Sn3Y1,7.000
Sr3Ir4Sn13,7.000
Nb1C1,7.000
Bi1.7Pb0.3Sr2Ca0.8Y0.2Cu2O8,69.700
Y1Ba2Cu2.9Ni0.1O6.88,69.500
Y0.9Ca0.1Ba2Cu2.9Co0.1O6.84,69.500
Bi1.4Pb0.6Sr2Ca1.6Ga0.4Cu3O7,69.400
Bi2Sr2Ca1Cu2O8,69.400
Y1Ba2Cu2.835Fe0.165O6.98,69.300
Sm1Ba2Cu4O8,69.300
Ca0.3Ba1.45La1.25Cu3O7.12,69.300
Y1Ba2Cu3O6.78,69.200
Y1Ba2Cu3O6.8,69.200
Y1Ba1Sr1Cu2.9Sn0.1O7,69.100
Sr2Ca1Cu2F1O5,69.100
Bi2.2Sr1.72La0.08Ca1Cu2O8,69.100
Nd1Ba2Cu3S1O6,69.000
Y1Ba2Cu2.73Fe0.27O7.1,69.000
Nd1.3Ba1.7Cu3O7,69.000
Y1Ba2Cu2.7Fe0.3O7.1,69.000
Gd1Ba2Cu4O8,69.000
Al1Sr2Ca2Cu3O9.5,69.000
Sr2Y1Cu3O7.9,69.000
Sr2Y1Cu3O7.65,69.000
Cu2Re0.15Sr2Y1O7.3,69.000
Ca1La1Ba1Cu3O7,69.000
La1Ca1Ba1Cu3O7,69.000
La1Ba1Ca1Cu3O7,69.000
Y0.8Ca0.2Ba2Cu2.8Co0.2O6.83,69.000
Pb2Sr2Eu0.9Ca0.1Cu3O8.1,69.000
Y1Ba2Cu3O6.702,69.000
Y1Ba2Cu3O6.6,69.000
Er1Ba2Cu2.94Zn0.06O6.92,69.000
Hg1Ba2Cu0.97Zn0.03O4.052,69.000
Y0.8Ga0.2Ba2Cu4O8,69.000
Eu1Ba2Cu4O8,68.900
Y0.95Ca0.05Ba1.9La0.1Cu4O7.9,68.800
Y1Ba2Cu3O6.75,68.800
Y0.9Ca0.1Ba2Cu3O6.59,68.800
Ho1Sr0.2Ba1.8Cu4O8,68.800
Y1Ba2Cu4O8,68.800
Y1Ba2Cu3O6.73,68.750
Ca0.2Ba1.55La1.25Cu3O7.159,68.700
Y1Ba1Sr1Cu2.9Sn0.1O7.001,68.600
Ca0.4Ba1.35La1.25Cu3O7.08,68.600
Hg1.4Tl0.6Ba2Y0.4Ca0.6Cu2O7.71,68.600
Y1Ba2Cu3.96Co0.04O8,68.500
Yb0.7Ca0.3Ba1.6Sr0.4Cu3O6.73,68.500
Ho1Ba2Cu4O8,68.500
La1.25Ba1.55Ca0.2Cu3O7.16,68.500
Bi2Sr1.8Ca1.2Cu2O8,68.400
Y1Ba2Cu2.88Ti0.12O6.88,68.400
Bi2Sr2Ca0.85Pr0.15Cu2O8,68.350
Ho1Sr0.6Ba1.4Cu4O8,68.300
Y0.8Pr0.2Ba2Cu3O7.55,68.300
Eu0.9Pr0.1Ba2Cu3O7,68.300
La0.9Pr0.1Ba2Cu3O7,68.300
Bi1.4Pb0.6Sr2Ca1.8Ga0.2Cu3O7,68.200
Nd0.92Pr0.08Ba2Cu3O7,68.200
Y1Ba2Cu3.96Ni0.04O8,68.200
Bi2Sr2Ca1Cu2O8.25,68.200
Tl1C1Sr2Ba2Cu2O10,68.200
Y1Ba1.6La0.4Cu3O7.14,68.150
Ho1Sr0.4Ba1.6Cu4O8,68.100
Y1Ba2Cu2.52Al0.48O6.74,68.000
Y1Ba2Cu3O6.66,68.000
Pb0.7Hg0.3Sr4Cu2C1O10,68.000
Y0.8Pr0.2Ba2Cu4O8,68.000
Y0.6Ca0.4Sr1.8Ba0.2Cu2Ga1O7,68.000
Hg1Ba2Cu1O4.01,68.000
Y0.8Pr0.2Ba2Cu3O6.81,68.000
Lu0.7Ca0.3Ba2Cu3O6.4,68.000
Eu1.8Pr0.2Ba4Cu7O14.779,68.000
Tm1.6Pr0.4Ba4Cu7O14.722,68.000
Pb2Sr2Y0.5Ca0.5Cu3F0.253O7.986,68.000
Y1Ba2Cu3H0.24O6.765,68.000
Cu3P0.5Sr2Ca1.8Y0.2O9.25,68.000
La2.5Y0.5Ca1Ba3Cu6.58Fe0.42O16.599,68.000
Ca0.2La0.45Ba1.55Cu3O7.16,68.000
Tl1Sr2Ca1Cu2O6.8,68.000
Y1Ba1Sr1Cu2.8Mo0.2O7.3,68.000
Y1Ba2Cu3.98Zn0.02O8,68.000
Dy1Ba2Cu2.9Ga0.1O6.7,68.000
Y0.8Pr0.2Ba2Cu3O7,68.000
Y1Ba2Cu2.82Ni0.18O7,68.000
La0.9Ca0.1Ba1.5Sr0.5Cu3O6.847,68.000
Tl1Sr2Ca0.6Y0.4Cu2O7,68.000
Y1Sr2Cu3O6.92,68.000
Pb0.5Sr2Ca0.5Ho0.5Cu2.5O7,67.900
Gd0.85Pr0.15Ba2Cu3O7,67.900
Y1Ba1.9La0.1Cu4O7.8,67.800
Bi1.4Pb0.6Sr2Ca1.2Ga0.8Cu3O7,67.700
Sm1Ba2Cu3O6.734,67.600
Y1Ba2Cu2.94Zn0.06O6.97,67.600
Y1Ba2Cu2.95Fe0.05O6.79,67.600
Yb0.7Ca0.3Ba1.6Sr0.4Cu3O6.73,67.600
Bi1.7Pb0.3Sr2Ca1Cu2O0.27,67.600
Y1La0.2Ba1.8Cu3O7.26,67.600
Y1Ba2Cu3.98Zn0.02O8,67.550
Er0.75Ca0.25Ba2Cu3O6.88,67.500
Y0.8Pr0.2Ba2Cu3O7.67,67.500
Y0.85Ca0.15Ba2Cu2.85Co0.15O6.83,67.500
Y0.75Ca0.25Ba2Cu2.75Co0.25O6.82,67.500
La3Ca0.6Cd0.4Ba3Cu7O16.41,67.500
Bi1.4Pb0.6Sr2Ca1.7Ga0.3Cu3O7,67.400
Y1Ba2Cu3O6.68,67.400
Nd1Ba2Cu3O6.85,67.400
Y1Ba2Cu3O6.71,67.300
Y0.8Ca0.2Ba2Cu3O6.59,67.300
Bi2Sr2Ca1Cu2O8.256,67.200
Yb0.7Pr0.3Ba2Cu3O6.87,67.200
Y1Ba2Cu2.94Zn0.06O6.9,67.100
Y0.6Ca0.2Pr0.2Ba2Cu3O7,67.100
La1.25Ca0.3Ba1.45Cu3O7.11,67.100
Y1Ba2Cu3.98Ni0.02O8,67.100
Bi1.6Pb0.4Sr2Ca2Cu3O10.34,67.100
Y1Ba2Cu2.73Ga0.27O7,67.040
Y1Ba2Cu2.94Zn0.06O7,67.040
Y1Ba1.7La0.3Cu3O7,67.000
Bi2Sr1.5Ca1.5Cu2O8.25,67.000
Y0.8Pr0.2Ba2Cu3O7,67.000
Eu1Ba2Cu4O8,67.000
Y1Ba2Cu3O6.7,67.000
Pb0.5Sr2Y0.6Ca0.4Cu2.5O6.97,67.000
Bi2Sr2Ca0.9Y0.1Cu2I1O8,67.000
Y1Ba2Cu3O6.84,67.000
Y0.85Ca0.15Ba2Cu2.85Ni0.15O6.85,67.000
Y1Ba1.9La0.1Cu3O6.85,67.000
Y0.6Ca0.4Ba1.2La0.8Cu3O7.15,67.000
Y1Ba2Cu3.98Zn0.02O8,67.000
Sr2Y1Cu3O7.75,67.000
Hg0.65V0.35Sr2Ca0.55Nd0.45Cu2O6.8,67.000
Cu3C0.5Ba2Ca2O9,67.000
Bi1.8Pb0.2Sr2Ca1Cu2O8,67.000
Y1Ba2Cu2.97Zn0.03O6.77,67.000
Dy1Ba2Cu2.9Ni0.1O6.74,67.000
La1.5Ba1Ca0.5Cu3O7.126,67.000
Y1Ba2Cu3O6.65,67.000
Y2Ba4Cu7O14.95,67.000
Y1Ba2Cu3O6.68,66.900
Bi1.7Pb0.3Sr2Ca0.7Y0.3Cu1.94Zn0.06O8,66.900
Nd1Ba1.2Sr0.8Cu3O6.97,66.900
Y1Ba2Cu3.98Zn0.02O8,66.600
Bi1.4Pb0.6Sr2Ca1Ga1Cu3O7,66.500
Y0.8Pr0.2Ba2Cu3O7.6,66.500
Y0.8Pr0.2Ba2Cu3O7.65,66.500
Y0.7Pr0.3Ba2Cu4O8,66.500
Hg0.5Fe0.5Sr2Y0.5Ca0.5Cu2O6.68,66.500
Hg1.4Tl0.6Ba2Y0.3Ca0.7Cu2O7.68,66.400
Yb0.7Ca0.3Ba1.6Sr0.4Cu3O6.43,66.300
Y1Ba2Cu2.75Co0.25O7.06,66.200
Y1Ba2Cu2.95Zn0.05O6.85,66.190
Gd0.8Ca0.05Mo0.15Ba2Cu3O6.651,66.100
Y1Ba2Cu3.992Zn0.008O8,66.100
Y1Ba2Cu2.4Ni0.6O6.94,66.000
La1Ba1Ca1Cu3O6.856,66.000
Bi2Sr2Ca0.5Y0.5Cu2O8.39,66.000
Y1Sr2Cu2.8W0.2O7.2,66.000
Y0.76Ca0.24Ba2Cu2.64Co0.36O6.96,66.000
Bi2Sr2Ca0.6Y0.4Cu2I1O8,66.000
Y0.8Ca0.2Ba1.4La0.6Cu3O7.15,66.000
Er0.45Ca0.4Hf0.15Ba2Cu3O7.1,66.000
Nd2Ba4Cu7O14.525,66.000
Ba1.6Sr0.4Yb0.75Ca0.25Cu3O6.51,66.000
La0.5Sm0.5Ba1Ca1Cu3O7,66.000
Y0.9Pr0.1Ba2Cu4O8,66.000
La1.75Er0.25Ba2Ca0.5Cu4.5O10.662,66.000
Y1Ba2Cu3H0.34O7,66.000
Lu0.75Pr0.25Ba1.7Sr0.3Cu3O6.9,66.000
Sm1Ba2Cu2.9Fe0.1O6.89,66.000
Y0.8Pr0.2Ba2Cu4O8,66.000
Y1Ba1.9Cu2.9Co0.1O6.92,66.000
Hg0.85Mo0.15Sr2Cu1O4,66.000
La0.95Ca0.05Ba1.5Sr0.5Cu3O6.878,66.000
Ba2Ca3Cu4F1.8O8.2,66.000
Pb0.5Sr2Ca0.5Dy0.5Cu2.5O7,65.900
Gd0.9Mo0.1Ba2Cu3O6.907,65.900
Y0.8Pr0.2Ba2Cu3O8.06,65.800
Sm0.9Pr0.1Ba2Cu3O6.95,65.700
Bi2Sr2Ca1Cu1.96Fe0.04O8,65.700
Y1Ba2Cu2.67Ga0.33O7,65.640
Y0.9Pr0.1Ba2Cu3O6.8,65.600
Nd1.1Ba1.9Cu3O7.05,65.500
Y0.8Pr0.2Ba2Cu3O7.79,65.400
Y1Ba2Cu2.55Ga0.45O7,65.360
Ca0.3Ba1.45La1.25Cu3O7.11,65.300
Y0.9Ca0.1Ba2Cu3O6.6,65.300
Ba2Yb1Cu3O6.66,65.300
La1Ba1.5Sr0.5Cu3O6.967,65.200
Y1Ba2.01Cu2.81Ni0.19O6.7,65.000
La2Ba4Cu6O13.8,65.000
Y1Ba2Cu2.85Co0.15O7.03,65.000
Y1Ba2Cu2.925Zn0.075O6.94,65.000
Pb2.04Sr2.07Y0.61Ca0.38Cu3O8,65.000
Pb2Sr2Y0.5Ca0.5Cu3O8.6,65.000
Bi2Sr2Ca1Cu2O8.2,65.000
Er1Ba2Cu2.82Ni0.18O7,65.000
Bi1.4Pb0.6Sr2Ca0.4Nd0.6Cu2O8.24,65.000
Pb2Sr2Y0.64Ca0.36Cu3O8,65.000
Y0.95Ca0.05Ba2Cu2.95Zn0.05O6.89,65.000
Nd1.1Ba1.7Ca0.2Cu3O6.894,65.000
Nd1Ba1.6Ca0.4Cu3O6.828,65.000
Nd1.2Ba1.4Sr0.4Cu3O6.731,65.000
Cu2Mo0.2Sr2Y1O7.3,65.000
Lu0.8Ca0.2Ba2Cu3O6.54,65.000
La0.25Sm0.75Ba1Ca1Cu3O7,65.000
Cu5.5Sr2Ca4Cr0.5O13.35,65.000
Y1Ba2Cu3.88Fe0.12O8,65.000
Tl1Sr2Ca0.6Gd0.4Cu2O7,65.000
Y1Ba2Cu2.94Zn0.06O6.95,65.000
Er1Ba2Cu2.88Zn0.03Fe0.09O6.95,65.000
Eu0.8Pr0.2Ba2Cu3O6.7,65.000
La2.1Gd0.9Ca1Ba2.6Sr0.4Cu6.72In0.28O16.54,65.000
Ru0.8Sr2Y1Cu2.2O8.1,65.000
Tl0.5Pb0.5Sr2Ca1Cu2.98Co0.02O7,65.000
Fe1Se1,65.000
Tl2Ba2Cu1O6.16,64.900
Y1Ba2Cu2.94Zn0.06O7,64.900
Y1Ba2Cu2.61Ga0.39O7,64.800
Ca0.95Ce0.05Ba1La1Cu3O6.91,64.800
Er0.8Ca0.05Hf0.15Ba2Cu3O6.706,64.800
Y1Ba2Cu3.96Fe0.04O8,64.750
Y1Ba2Cu3O6.89,64.700
Y1Ba2Cu3O6.69,64.700
Y1Ba2Cu2.94Ni0.06O6.78,64.600
Y1Ba2Cu3.975Fe0.025O8,64.600
Y1Ba2Cu3.96Fe0.04O8,64.600
Bi2Sr2Ca1Cu2I0.2O8.242,64.600
Y1Ba2Cu3O6.72,64.600
Y1Ba2Cu3O6.66,64.500
Tm1Ba2Cu3O6.72,64.500
Gd0.7Pr0.2Ca0.1Ba2Cu3O7,64.400
Y0.8Pr0.2Ba2Cu3O8.04,64.400
Yb0.7Ca0.3Ba1.6Sr0.4Cu3O6.43,64.300
Yb1Ba2Cu2.943Zn0.057O6.9,64.300
Y1Ba2Cu3O6.66,64.200
Bi4Sr3Ca1Y2Cu4O16,64.100
Tm0.7Pr0.3Ba2Cu3O6.95,64.100
Y1La1.4Ba3.6Cu6O14.2,64.000
Y1Ba2Cu2.89Co0.11O7,64.000
Bi2Sr2Ca0.6Y0.4Cu2O8.29,64.000
Y1Ba2Cu3O6.8,64.000
Y1Ba2Cu4Li0.062O8,64.000
Y0.8Ca0.2Ba2Cu2.8Ni0.2O6.77,64.000
Y0.8Ca0.2Sr1Ba1Cu2.7Ga0.3O7,64.000
Sr1.4Ba0.6Cu1F2O2,64.000
Y1Ba2Cu3.8Fe0.2O8,64.000
Nd1Ba1Sr1Cu3O6.92,64.000
Ca1Ba1La1Cu3O6.97,64.000
Er0.94Ca0.06Ba2Cu2.82Co0.18O6.76,64.000
Er0.94Ca0.04Ba2Cu2.82Co0.18O6.76,64.000
Er0.76Ca0.24Ba1.4Sr0.6Cu2.76Co0.24O6.84,64.000
Y0.95Ca0.05Ba2Cu2.95Co0.05O6.75,64.000
La1.7Gd0.3Ba2Ca0.6Cu4.6O10.9,64.000
Y1Ba1.9La0.1Cu3O8,64.000
Y1Sr2Cu3O7.2,64.000
Y1Ba2Cu2.88Zn0.12O6.95,64.000
Sr2Y1Ru0.5Cu0.5O6,64.000
Y1Ba2Cu2.75Ni0.25O7,63.900
Y1Ba2Cu3O6.7,63.900
Y1Ba2Cu2.9Fe0.1O6.85,63.800
Y1Ba2Cu3.98Zn0.02O8,63.800
Y1Ba1Sr1Cu2.85Sn0.15O7.06,63.800
Y1Ba2Cu3.92Co0.08O8,63.750
Y1Ba2Cu3.96Ni0.04O8,63.700
Y1Ba1Sr1Cu2.85Sn0.15O7.062,63.700
Y1Ba2Cu3O6.73,63.700
Y1Ba2Cu2.925Zn0.075O6.85,63.600
Pb2Sr2Ho0.5Ca0.5Cu2.982Al0.018O8,63.600
Hg0.92Ba2.05Cu1.03O4.103,63.600
Y1Ba2Cu2.8Ni0.2O7,63.500
Pb0.5Cd0.5Sr2Y0.5Ca0.5Cu2O7,63.500
Ca0.4Ba1.25La1.35Cu3O7.16,63.500
Y1Ba2Cu3.939Ni0.061O8,63.500
Eu0.8Pr0.2Ba2Cu4O8,63.500
Hg0.5Fe0.5Sr2Y0.2Ca0.8Cu2O6.63,63.500
Bi1.7Pb0.3Sr2Ca0.6Y0.4Cu2O8,63.500
Y0.7Pr0.3Ba2Cu4O8,63.500
Tl0.5Pb0.5Sr2Ca1Cu2.98Ni0.02O7,63.500
Y1Ba2Cu3O6.66,63.320
Y1Ba2Cu2.4Ga0.6O7,63.310
Y0.8Pr0.2Ba2Cu3O7.2,63.300
Gd1Ba1.9Pr0.1Cu3O7.03,63.300
Bi2Sr2Ca1Cu2I0.43O8.21,63.100
Y1Ba2Cu3.98Ni0.02O8,63.100
Y1Ba2Cu2.697Mn0.303O6.9,63.000
Y1Ba2Cu2.05Al0.95O6.7,63.000
Y1Sr2Cu2.8Re0.2O7.2,63.000
Ga1Sr2Ca3Cu4O11.5,63.000
Y1Ba2Cu3O6.7,63.000
Al1Sr2Ca2Cu3O9.3,63.000
Y1Ba2Cu3O6.68,63.000
Eu1.6Pr0.4Ba4Cu7O14.761,63.000
Tl0.5Pb0.5Sr4Cu2C7.75O23.25,63.000
La1Ba1Ca1Cu3O7,63.000
Y1Ba2Cu3O6.76,63.000
Eu0.8Pr0.2Ba2Cu3O7,63.000
Y1Ba2Cu3.964Ni0.036O8,63.000
Y0.6Pr0.4Ba2Cu4O7.95,63.000
Nd1Ba2Cu3O6.78,63.000
Y1Ba2Cu3.976Zn0.024O8,63.000
Y1Ba2Cu3.972Zn0.028O8,63.000
Yb0.7Pr0.3Ba1.7Sr0.3Cu3O6.93,63.000
Dy1Ba2Cu2.8Ni0.2O6.83,63.000
Y0.8Ce0.1Ca0.1Ba2Cu4O8,63.000
Y1Ba1.75Cu2.75Co0.25O7.06,63.000
Er1Ba2Cu2.91Zn0.06Fe0.03O6.93,63.000
La0.7Ca0.2Pr0.1Ba1.5Sr0.5Cu3O6.809,63.000
La1.25Ca0.25Ba1.5Cu3O7.087,62.900
Y0.8Pr0.2Ba2Cu3O7.5,62.900
Y1Ba2Cu3.96Mn0.04O8,62.800
Y0.8Pr0.2Ba2Cu3O6.91,62.700
Bi2Sr2Ca0.6Y0.4Cu2O8,62.700
Y1Ba1.7La0.3Cu4O7.8,62.700
Bi1.4Pb0.6Sr2Ga2Cu3O7,62.700
Y0.8Pr0.2Ba2Cu3O7.3,62.600
Y0.8Ca0.2Ba2Cu3O6.51,62.600
Y1Ba2Cu3O6.66,62.600
Y0.7Pr0.3Ba2Cu3O6.95,62.500
Y1Ba2Cu3.96Co0.04O8,62.500
Y1Ba2Cu3O6.7,62.500
Y1Sr2Cu3O7.5,62.500
Y1Ba2Cu3.96Ni0.04O8,62.400
Hg0.9Cr0.1Sr2Cu1O4,62.300
Y1Ba2Cu3O6.64,62.250
Y1Ba2Cu3O6.65,62.200
Yb0.9Ca0.1Ba1.6Sr0.4Cu3O6.89,62.100
Bi1.7Pb0.3Sr2Ca0.65Y0.35Cu1.94Zn0.06O8,62.100
Y1Ba2Cu3O6.75,62.100
Y0.99Ba1.99Cu2.847Li0.153O6.4,62.000
Y1Ba2.01Cu2.806Cr0.194O7.3,62.000
Y1Ba2Cu3O6.72,62.000
Y1Ba2Cu3O6.62,62.000
Tl2Ba2Cu1O6.03,62.000
Pb0.5Sr2Ca0.5Sm0.5Cu2.5O7,62.000
Pb0.5Ca1Sr2Y0.5Cu2O7,62.000
Sr2Ho1Cu3O1,62.000
Y0.75Ca0.25Ba2Cu2.75Ni0.25O6.77,62.000
Sr1.5Ba0.5Cu1F2O2,62.000
Sr2Y1Cu3O7.95,62.000
Sr2Y1Cu3O7.45,62.000
Sr2Tm1Cu3O7.65,62.000
Sr2Tm1Cu3O7.2,62.000
Sr2Tm1Cu3O7.48,62.000
Pb2Sr2Y0.5Ca0.5Cu3O8.188,62.000
Y1Ba2Cu3O6.63,62.000
Tl1Sr2Ca0.4Tb0.6Cu2O7,62.000
Y1Ba2Cu2.94Ni0.06O7,62.000
Y1Ba2Cu2.4Fe0.6O7.453,62.000
Dy1Ba2Cu2.94Zn0.06O6.9,62.000
Y1Ba2Cu4O8,62.000
La1.5Ba1.1Ca0.4Cu3O7.082,62.000
Y1Ba2Cu3O6.73,62.000
Y1Ba2Cu2.988Zn0.012O6.75,62.000
La0.75Ca0.15Pr0.1Ba1.5Sr0.5Cu3O6.845,62.000
Y0.8Pr0.2Ba2Cu4O8,62.000
La1Fe1P1F0.1O0.9,62.000
Y0.8Ca0.2Ba2Cu3O6.5,61.900
Y1La0.2Ba1.8Cu3O7.16,61.700
Y1Ba2Cu3O6.67,61.500
Sr2Y1Ru0.5Cu0.5O6,61.500
Y0.9Pr0.1Ba2Cu3O6.85,61.500
Y1Ba1.7La0.3Cu3O7.059,61.400
Y1Ba2Cu2.97Zn0.03O6.76,61.400
Y1Ba1.8La0.2Cu3O6.9,61.400
Y1Ba2Cu3O6.61,61.380
Y1Ba2Cu3O6.52,61.340
Er1Ba2Cu3O6.64,61.300
Y1Ba2Cu3O6.61,61.300
Y1Ba2Cu3O6.61,61.250
Y1Ba2Cu3O6.59,61.200
Er0.7Pr0.3Ba2Cu3O7,61.100
Y1Ba2Cu3O6.63,61.100
Y1Ba2Cu3O6.75,61.100
Bi2Sr2Ca0.7Pr0.3Cu2O8,61.000
Y0.7Pr0.3Ba2Cu4O8,61.000
Tl1Ba2Sr2Cu2C1O10,61.000
Y1Ba1.9La0.1Cu4O8,61.000
Y1Ba1.87La0.13Cu4O8,61.000
Y1Ba1.7La0.3Cu3O7.02,61.000
Sr1.5Ba0.5Y1Cu2.8Ga0.2O7.2,61.000
Ba1.6Sr0.4Yb0.85Ca0.15Cu3O6.6,61.000
Ba1.6Sr0.4Yb0.65Ca0.35Cu2O6.4,61.000
Tl1Sr2Ba2Cu2C0.9N0.1O10,61.000
Tl1Sr2Ba2Cu2C0.8N0.2O10,61.000
Y0.75Ca0.25Ba2Cu2.75Co0.25O6.8,61.000
Hg1Ba2Cu1O4.01,61.000
Y1Ba2Cu3.84Fe0.16O8,61.000
Ru1Sr2Gd0.9Ca0.1Cu2O8,61.000
Lu0.7Pr0.3Ba1.7Sr0.3Cu3O6.89,61.000
Hg1Ba2Cu1O4,61.000
Y0.8Ca0.2Ba2Cu3O6.49,61.000
Tl0.7Gd0.3Sr2Ca0.8Cr0.2Cu2O7,61.000
Y1Ba2Cu3O6.62,60.900
Y1Ba2Cu3O6.72,60.800
Y1Ba2Cu2.94Zn0.06O6.84,60.800
Bi2Sr2Ca0.7Pr0.3Cu2O8.299,60.800
Bi2Sr2Ca1Cu2O8.28,60.700
Bi1.7Pb0.3Sr2Ca0.75Y0.25Cu1.94Zn0.06O8,60.600
Y0.7Pr0.3Ba2Cu3O6.942,60.600
Y1Ba2Cu3O6.67,60.600
Ca0.9Ce0.1Ba1La1Cu3O7.02,60.500
Bi2Sr2Ca0.9Pr0.1Cu2O8,60.500
Y1Ba2Cu3.92Fe0.08O8,60.500
Y0.6Pr0.4Ba1Sr1Cu3O6.9,60.500
Y1Ba2Cu3O6.666,60.500
Nd1Ba2Cu3O6.23,60.500
Bi2.2Sr1.72La0.08Ca1Cu2O8,60.500
Y1Ba2Cu2.7Ni0.3O6.97,60.400
C0.57Sr2Ca0.7Y0.3Cu2.33O6.78,60.300
Y1Ba1.8La0.2Cu4O7.9,60.100
Y1Ba2Cu2.94Fe0.06O7,60.000
Y2La0.6Ba3.4Cu6O14.02,60.000
Y1Ba2Cu2.994Zn0.006O6.63,60.000
Y1Ba2Cu3O6.7,60.000
Y2Ba4Cu7O14.68,60.000
Y1Ba2Cu2.91Fe0.09O6.83,60.000
Bi2Sr2Ca1Cu2O8,60.000
Y1Ba1.7La0.3Cu3O7.1,60.000
Pb0.5Sr2Ca0.5Nd0.5Cu2.5O7,60.000
Pb0.5Sr2Ca0.5Eu0.5Cu2.5O7,60.000
Pb0.5Sr2Ca0.5Gd0.5Cu2.5O7,60.000
Y2Ba4Cu7O14.53,60.000
C0.55Sr2.03Ca0.62Y0.35Cu2.35O6.79,60.000
Sr1.6Ba0.4Cu1F2O2,60.000
Tl1.2Sr2Ca0.8Cu2O6.862,60.000
Y0.9Ca0.1Ba1.5La0.5Cu3O7.13,60.000
La1.8Sr0.2Ca1Cu2O5.98,60.000
Hg1Ba2Cu1O4.13,60.000
Y1Ba2Cu3O6.63,60.000
Ca1La1Ba1Cu2.97Zn0.03O7,60.000
Tm1.4Pr0.6Ba4Cu7O14.667,60.000
Ba1.6Sr0.4Yb1Cu3O6.75,60.000
Tl0.5Pb0.5Sr4Cu2C7O21,60.000
Y0.8Pr0.2Ba2Cu4O8,60.000
Bi1.6Pb0.4Sr2Cu3Ca2O10.08,60.000
Y1Ba2Cu3O6.74,60.000
La1Ba0.8Ca1.2Cu3O7.11,60.000
La1.9Yb0.3Ba1.9Ca0.6Cu5O11.797,60.000
Y0.6Pr0.4Ba2Cu4O8,60.000
Tl1Sr2Ca0.4Gd0.6Cu2O7,60.000
Ca0.4Ba1.35La1.25Cu3O7.05,60.000
Y1Ba2Cu2.3Fe0.7O7.484,60.000
La1.2Ba1.5Ca0.3Cu3O6.93,60.000
Pr1Ba2Cu3O6.6,60.000
Y1Ba2Cu3O6.6,60.000
Hg1Ba2Cu1O4.1,60.000
Y1Ba2Cu2.95Zn0.05O6.8,60.000
Y1Ba2Cu2.91Zn0.09O6.68,60.000
Fe0.5Ba1Sr1Y1Cu2.5O7.35,60.000
Fe0.5Ba2Eu1Cu2.5O7.51,60.000
Fe0.5Ba2Tm1Cu2.5O7.43,60.000
Hg0.4Pr1.1Sr2Ca0.5Cu2O6.9,60.000
H2S1,60.000
Fe1Se1,60.000
Fe1Se0.99,6.990
Pb0.93Tl0.075,6.980
Pb1Tl0.075,6.980
Nd1Fe1As0.2P0.8F0.1O0.9,6.980
Mg1C0.885B0.04Ni3,6.970
Sb2Te3,6.970
Ca3Ir4Sn13,6.970
Sc4.5Dy0.5Ir4Si10,6.950
Cr0.071Nb0.929,6.950
Nb1Se2,6.950
La1Mo6S8,6.950
In0.2Pb0.8,6.950
Nb0.9V0.1,6.950
Au2Pb1,6.950
Ti0.6V0.4,6.950
Li2Pd3B1,6.950
Ba1Pt3Au1Ge12,6.950
Sc0.4V0.6,6.940
Lu0.65Er0.35Ru1B2,6.940
Mg1C1Ni2.995Ru0.005,6.930
Mg1C1Ni2.999Fe0.001,6.930
La1Fe1P1F0.05O0.95,6.930
Bi1Te1Cl1,6.930
Cd0.1Pd0.9,6.920
La2.974Gd0.025In1,6.920
Mg1C1Ni2.995Ru0.005,6.910
Li2Pd2.4Ni0.6B1,6.910
Zr0.5Lu0.5P1Se1,6.910