formula,Tc,type
Ca0.92Cu0.76O1.31Pb1.51Sr3.22Tl2.14,100.0,original
Ba1.7Cu1.39O1.3Y2.04,99.0,original
Ba1.67Cu1.39O1.28Y2.04,99.0,original
Ba1.64Cu1.39O1.28Y2.04,99.0,original
Ca1.05Cu0.76F10.35O0.64Sr3.22,99.0,original
Ca0.18Cu0.13Sr0.93,99.0,original
Bi3.16Ca1.05Cu0.76O1.59Sr3.22,99.0,original
Ba1.72Ca0.92Ce0.41Cu0.75O1.59Tl8.96,99.0,original
Ba1.72Ca4.78Cu3.09O2.93,99.0,original
Ba1.72Ca2.29Cu0.92Li1.73O1.51Si0.33Tl,99.0,original
Bi3.16Ca1.05Cu0.76O1.59Sr3.22,98.0,original
Ca0.22Cu0.13Sr0.75,98.0,original
Ba1.72Cu0.13Hg7.24O0.5,98.0,original
Ba1.72Cu0.13Hg7.24O0.51,98.0,original
Ba1.72Ca1.05Cu0.76Hg7.24O1.12,98.0,original
Ba1.72Ca2.29Cu1.39Hg7.24O1.64,98.0,original
Ca1.98Cu1.71O2.07Sr3.66V0.34,98.0,original
Ba0.21Cu0.13O0.31Sr2.16,98.0,original
Cr0.43Cu0.13,98.0,original
Ba1.72Ca0.8Cu0.76O1.31Tl4.41Y0.13,98.0,original
Ba1.72Cu0.13Hg7.24O0.52,98.0,original
Ba1.72Cu1.39O1.3Y2.04,97.0,original
Ba0.64Ca2.29Cu1.39O1.87Sr1.46Tl4.41,97.0,original
Ba1.72Cu0.13Hg7.24O0.5,97.0,original
Bi2.49Ca2.29Cu1.39O2.19Pb1.18Sr3.22,97.0,original
Ba1.72Cu0.13Hg6.88O0.58,97.0,original
Ba1.72Cu0.13Hg7.24O0.53,97.0,original
Ba1.72Cu0.13Hg7.24O0.54,97.0,original
Ba1.72Cu0.13Hg7.24O0.51,97.0,original
Ba1.72Cu1.39O1.23Y2.04,97.0,original
Ba1.72Cu0.13F5.12Hg7.24O0.48,97.0,original
Ba1.72Cu0.13Hg7.24O0.48,97.0,original
Ba1.72Cu0.13Hg6.51O0.59,97.0,original
Ba1.72Cu0.13Hg7.24O0.52,97.0,original
Ba1.78Cu0.15Hg6.66O0.49,97.0,original
Ba1.72Ca0.8Cu0.76Nd0.84O1.31Tl4.41,97.0,original
Ba1.72Cu0.13Hg6.14O0.62Re0.17,97.0,original
Ba1.72Cu1.39Gd8.95O1.31,97.0,original
Ba1.72Cu1.39O1.31Yb9.91,97.0,original
Ba1.61Cu1.39O1.31Y2.04,97.0,original
Ba1.72Cu1.39Gd8.95O1.31,96.0,original
Ba1.72Cu0.13Hg7.24O0.5,96.0,original
Ba1.72Cu0.13Hg5.77O0.56V0.1,96.0,original
Ba1.72Cu1.39Nd4.84O1.31,96.0,original
Ba1.72Cu0.13Hg6.88O0.58,96.0,original
Ba1.72Cu0.13Hg7.24O0.48,96.0,original
Ba1.72Cu1.39O1.31Sm6.8,96.0,original
Ba1.72Cu1.39O1.16Y1.56,96.0,original
Ba1.72Cu0.13F5.12Hg7.24O0.48,96.0,original
Bi3.16Ca0.8Cu0.76O1.66Sr3.4,96.0,original
Ba1.72Cu1.39O1.28Y2.28,96.0,original
Ba1.72Ca0.55Cu0.76O1.31Tl4.41Y0.61,96.0,original
Ba1.72Ca0.68Cu0.76Nd1.34O1.31Tl4.41,96.0,original
Ba1.72Cu1.39O1.31Y2.04,96.0,original
Ba1.72Cu1.39Nd4.84O1.36,96.0,original
Bi3.16Ca0.95Cu0.76O1.59Sr3.36,96.0,original
Ba1.72Cu1.39Eu6.81O1.31,96.0,original
Ba1.72Cu1.39O1.29Y2.04,96.0,original
Ba1.72Cu1.39O1.28Y2.04,96.0,original
Ba1.72Cu1.39Dy10.45O1.31,96.0,original
Ba1.72Cu1.39O1.28Y2.04,95.0,original
Ba1.61Cu1.39O1.28Y2.04,95.0,original
Ba1.72Cu1.39O1.3Y2.04,95.0,original
Ba1.72Cu1.39O1.31Y2.04,95.0,original
Bi3.16Ca2.29Cu2.02O2.43Sr3.22,95.0,original
Ba1.72Ca1.05Cu0.76O1.59Tl8.96,95.0,original
Ba1.72Cu1.39Ho10.97O1.31,95.0,original
Ba1.72Cu1.39Eu6.81O1.31,95.0,original
Ba1.72Cu0.13O0.75Tl4.41,95.0,original
Ba1.72Ca2.29Cu1.39Hg5.77O1.62,95.0,original
Ba1.72Cu1.39Nd4.84O1.26,95.0,original
Ba1.72Cu0.13Hg6.51O0.59,95.0,original
Bi3.16Ca1.05Cu0.76O1.59Sr3.22,95.0,original
Ba1.72Cu0.13Hg7.24O0.53,95.0,original
Ba1.72Cu1.39O1.3Sm6.8,95.0,original
Ba1.72Cu0.13Hg7.24O0.49,95.0,original
Ba1.72Be0.63Ca1.42Cu1.71O1.56Tl2.14,95.0,original
Cu0.13O0.31Sr3.22,95.0,original
Ca3.54Cu2.02F19.77O1.59Sr3.22,95.0,original
Ba1.72Cu1.39Eu6.81O1.34,95.0,original
Ba3.88Cu3.91O3.27Y4.44,95.0,original
Ba1.72Cu0.13Hg6.14O0.62Re0.17,95.0,original
Ba1.72Cu1.39Eu6.81O1.3,95.0,original
Ba1.72Cu1.39Er7.65O1.28,95.0,original
Ba1.72Cu1.38O1.28Y1.98,95.0,original
Ba1.72Cu1.39H0.66O1.31Y2.04,95.0,original
Ba1.72Cu1.39Nd4.84O1.31,95.0,original
Ba1.72Cu1.36O1.29Y2.04,95.0,original
Bi13.3Ca4.78Cu5.17O8.89Sr13.79,95.0,original
Ba1.72Cu1.39Gd8.95O1.31,95.0,original
Bi3.16Ca0.55Cu0.76O1.59Sr3.93,95.0,original
Ba1.72Cu0.13Hg7.24O0.5,95.0,original
Ba1.72Cu1.39Eu6.81O1.28,94.0,original
Ba1.72Cu1.39Gd8.95O1.31,94.0,original
Ba1.72Cu1.39O1.3Sm6.8,94.0,original
Ba1.72Cu1.39O1.31Y2.04,94.0,original
Bi3.16Ca1.05Cu0.76Li4.3O1.51Sr2.16,94.0,original
Ba1.66Cu1.39O1.3Y2.04,94.0,original
Ba1.64Cu1.39O1.3Y2.04,94.0,original
Ba1.72Cu0.13Hg7.24O0.5,94.0,original
Ba1.72Cu1.39Nd4.84O1.25,94.0,original
Ba1.72Cu1.39Dy10.45O1.24,94.0,original
Ba1.72Cu1.39Eu6.81O1.26,94.0,original
Ba1.72Ca2.29Cu1.39Hg7.24O1.64,94.0,original
Ba1.72Cu0.13Hg7.24O0.53,94.0,original
Bi3.16Ca1.05Cu0.76O1.66Sr3.04,94.0,original
Ba1.61Cu1.39O1.31Y2.04,94.0,original
Ba1.72Cu1.39O1.26Y2.04,94.0,original
Ba1.72Cu1.39Er7.41O1.31,94.0,original
Ba1.72Cu1.39Gd8.95O1.33,94.0,original
Ba1.72Cu1.39Eu5.43O1.31Y0.13,94.0,original
Ba1.72Cu1.39H1.32O1.31Y2.04,94.0,original
Ba1.67Cu1.39O1.3Y2.04,94.0,original
Ba1.78Cu0.15Hg6.66O0.49,94.0,original
Ba1.72Cu0.13Hg6.51O0.59,94.0,original
Ba1.72Cu1.39O1.28Y2.04,94.0,original
Ba1.4Cs3.1Cu1.39O1.2Y2.04,94.0,original
Bi3.16Ca1.05Cu0.76O1.59Sr3.22,94.0,original
Ba1.72Cu0.13Hg6.14O0.61Re0.17,94.0,original
Ba1.72Cu0.13Hg6.14O0.63Re0.17,94.0,original
Ba1.72Cu1.39O1.2Y1.92,94.0,original
Ba1.72Cu1.39H1.68O1.31Y2.04,94.0,original
Ba1.72Ca0.8Cu0.76Gd1.7O1.31Tl4.41,94.0,original
Ba1.72Cu1.39H1.72O1.31Y2.04,94.0,original
Ba1.6Cu1.39O1.3Y2.04,94.0,original
Ba1.68Cu1.39O1.3Y2.04,94.0,original
Ba1.72Cu1.39Er7.65O1.31,94.0,original
Ba1.72Cu1.39Eu6.81O1.3,94.0,original
Bi3.16Ca0.24Cu0.76O1.59Sr4.37,94.0,original
Ba1.72Cu1.39O1.34Sm6.8,94.0,original
Bi6.54Ca3.54Cu2.02O3.82Sr4.98,94.0,original
Ba1.72Cu1.39Nd4.84O1.31,94.0,original
Ba1.72Cu1.39H0.4O1.31Y2.04,94.0,original
Ba1.72Cu1.39H0.62O1.31Y2.04,94.0,original
Ba1.61Cu1.39O1.3Y2.04,94.0,original
Ba1.72Cu1.39O1.3Y2.04,94.0,original
Ba1.72Cu1.39O1.29Y2.04,94.0,original
Ba1.61Cs0.99Cu1.39O1.21Y2.04,94.0,original
Ba1.72Cu1.39O1.23Y2.04,94.0,original
Ba1.72Cu1.38O1.28Y2.04,94.0,original
Ba1.72Cu1.39O1.2Y1.8,94.0,original
Ba1.72Cu1.39O1.31Y2.52,94.0,original
Ba1.61Cu1.39O1.18Rb0.49Y2.04,94.0,original
Ba1.51Cs2.05Cu1.39O1.2Y2.04,94.0,original
Ba1.72Ca4.78Cu3.09O2.98,94.0,original
Ba1.72Cu1.39H3.58O1.31Y2.04,94.0,original
Ba3.72Cu3.28O3.26Y4.44,94.0,original
Ba1.72Cd5.88Cu1.39O1.31Y0.85,94.0,original
Ba1.59Cu1.39O1.3Y2.04,94.0,original
Ba1.69Cu1.39O1.3Y2.04,94.0,original
Ba1.72Cu1.39O1.09Y2.04,94.0,original
Ba1.72Cu1.39O0.72Y2.04,94.0,original
Ba1.72Cu1.39Gd8.68O1.31,94.0,original
Ba3.88Cu3.91O3.54Y4.44,94.0,original
Ba1.72Cu1.39O1.31Sm6.8,94.0,original
Ba1.72Cu1.39O1.31Y2.04,93.0,original
Ba3.66Cu3.28O3.24Y4.44,93.0,original
Ba3.88Cu3.28O3.24Y4.44,93.0,original
Ba1.72Cu1.39La1.11O1.27,93.0,original
Ba1.72Cu1.39Nd4.84O1.27,93.0,original
Ba1.72Cu1.93O1.27Y2.04,93.0,original
Ba3.88Cu3.91O3.54Y4.44,93.0,original
Ba1.72Cu1.39Er7.65O1.31,93.0,original
Bi3.16Ca1.05Cu0.76O1.59Sr3.22,93.0,original
Bi3.42Ca1.05Cu0.76O1.63Sr2.87,93.0,original
Ca3.54Cu2.02Ga1.1O2.37Sr3.22,93.0,original
Ba1.51Cu1.39K0.96O1.19Y2.04,93.0,original
Ba1.61Cu1.39O1.29Y2.04,93.0,original
Cu0.76O1.3Sr3.22Tl4.41Y1.56,93.0,original
Ba1.72Cu1.39O1.3Y2.04,93.0,original
Ba1.72Cu1.39O1.59Y2.04,93.0,original
Ba1.72Cu1.39Er7.65O1.27,93.0,original
Ba1.72Cu1.39O1.26Y2.04,93.0,original
Ba1.72Ca1.05Cu0.76Hg7.24O1.06,93.0,original
Ba1.72Cu1.39O1.29Y2.04,93.0,original
Ba1.72Cu1.39O1.28Y2.04,93.0,original
Ba1.72Cu1.39O1.23Y2.04,93.0,original
Bi3.16Ca1.17Cu0.76O1.66Sr2.87,93.0,original
Ba1.61Cu1.39Gd9.85O1.31,93.0,original
Bi1.81Ca1.05Cu0.76O1.59Pb2.48Sr3.22,93.0,original
Ca0.8Cu0.76Na1.14O1.31Sr3.22Tl3.05,93.0,original
Ba1.72Cu1.39Ho10.97O1.23,93.0,original
Ba1.72Cu1.39Gd8.95O1.28,93.0,original
Ba1.4Cu1.39K1.5O1.18Y2.04,93.0,original
Ba1.61Cu1.39O1.24Y2.04,93.0,original
Ba1.72Cu1.39O1.27Sm6.8,93.0,original
Ba1.72Cd2.32Cu1.39O1.31Y1.56,93.0,original
Ba1.72Cd3.5Cu1.39O1.31Y1.32,93.0,original
Bi3.16Ca1.05Cu0.76O1.64Sr3.22,93.0,original
Ba1.72Cu1.39H0.15O1.29Y2.04,93.0,original
Ba3.88Cu3.91O3.57Y4.44,93.0,original
Ba1.72Cu1.39O1.28Yb9.91,93.0,original
Ba1.72Cu1.39Dy10.45O1.26,93.0,original
Ba1.61Cu1.39K0.41O1.2Y2.04,93.0,original
Ba1.72Cu1.39O1.31Sm6.8,93.0,original
Ba1.64Cu1.39O1.3Y2.04,93.0,original
Ba1.72Cu1.39Eu2.66O1.31Y1.09,93.0,original
Bi3.16Ca0.8Cu0.76O1.67Sr3.22Y0.13,93.0,original
Ba1.7Cu1.39O1.3Y2.04,93.0,original
Ba1.72Cu1.39H0.44O1.31Y2.04,93.0,original
Ba1.72Cu1.39O1.21Tm7.72,93.0,original
Bi3.16Ca0.8Cu0.76Lu0.58O1.67Sr3.22,93.0,original
Ba1.72Cu1.39Dy10.45O1.31,93.0,original
Ba1.72Cu0.13O1.06Tl8.96,93.0,original
Ba1.72Cu0.13Hg7.24O0.5,93.0,original
Ba1.72Cs0.46Cu1.39O1.2Y1.92,93.0,original
Ba1.72Cu1.39Er7.65O1.26,93.0,original
Ba1.72Cu1.39Lu3.29O1.31,93.0,original
Ba1.72Cu1.39O1.15Rb0.49Y1.8,93.0,original
Ba1.72Cu1.39O1.21Y1.8,93.0,original
Ba1.72Cu1.39O1.24Y2.04,93.0,original
Ba1.72Cu1.36O1.26Y2.04,93.0,original
Ba1.7Cu2.02O1.59Y1.86,93.0,original
Ba1.51Cu1.39O1.22Y2.52,93.0,original
Ba1.72Cu1.39Ho10.97O1.28,93.0,original
Ba1.72Cu1.39Dy10.45O1.28,93.0,original
Ba1.72Cu1.39Nd4.84O1.31,93.0,original
Bi3.16Ca1.05Cu0.76O1.67Sr3.22,93.0,original
Ba1.72Cu1.39Eu6.81O1.31,93.0,original
Ba1.72Cu1.39Ho10.97O1.31,93.0,original
Ba1.72Cu1.39O1.31Tm7.72,93.0,original
Bi3.16Ca0.8Cu0.76O1.66Sr3.22Yb1.91,93.0,original
Ba1.71Cu1.39O1.3Y2.04,93.0,original
Ba1.72Cu0.13O1.03Tl8.96,93.0,original
Ba1.78Cu0.15Hg6.66O0.49,93.0,original
Ba1.72Cu1.39K0.41O1.18Y1.8,93.0,original
Ba1.72Cu1.39O1.2Rb0.2Y1.92,93.0,original
Ba1.72Cu1.39O1.31Y2.04,92.0,original
Ba1.72Cu1.33O1.29Y2.04,92.0,original
Ba1.72Cu1.39O1.27Y2.04,92.0,original
Ba1.72Cu1.39Eu6.81O1.31,92.0,original
Ba1.72Cu1.39Gd8.95O1.31,92.0,original
Ba1.72Cu1.39Gd8.95O1.03S0.95,92.0,original
Ba1.72Cu1.39O1.28Y2.04,92.0,original
Ba1.72Cu1.39Gd8.95O1.28,92.0,original
Ba1.72Cu1.37O1.3Y2.04,92.0,original
Ba1.72Co0.21Cu1.35O1.3Y2.04,92.0,original
Ba1.72Cu1.39O1.26Y2.04,92.0,original
Ba1.72Cu1.39Er7.65O1.29,92.0,original
Ba1.72Cu1.39O1.34Y2.04,92.0,original
Ba1.72Ca1.05Cu0.76O1.59Tl8.96,92.0,original
Ba1.72Cu1.39Er7.65O1.31,92.0,original
Ba1.61Cu1.39Nd5.34O1.28,92.0,original
Ba1.72Cu1.39O1.29Y2.04,92.0,original
Bi3.16Ca0.8Cu0.76O1.66Sr3.22Y0.13,92.0,original
Ba3.88Cu3.91O3.54Y4.44,92.0,original
Bi3.16Ca1.05Cu0.76O1.65Sr3.22,92.0,original
Ba1.72Cu1.39O1.31,92.0,original
Ba1.72Cu1.36O1.28Y1.92,92.0,original
Ba1.72Br9.95Cu1.39O1.09Y2.04,92.0,original
Bi0.34Ca0.43Cu0.76Hg4.82O1.31Sr3.22Y0.85,92.0,original
Ba1.72Ca1.05Cu0.76Hg7.24O1.06,92.0,original
Ba1.72Cu1.39H5.04O1.31Y2.04,92.0,original
Ba0.64Cu1.39O1.28Sr1.46Y2.04,92.0,original
Ba1.72Ca2.29Cu1.39O1.87Sr1.46Tl4.41,92.0,original
Ba1.72Cu1.39O1.3Y2.04,92.0,original
Ca0.43Cu0.76O1.28Sr3.22Tl4.41Y0.85,92.0,original
Ca0.3Cu0.76O1.29Sr3.22Tl4.41Y1.09,92.0,original
Ca0.18Cu0.76O1.3Sr3.22Tl4.41Y1.32,92.0,original
Ba1.72Cu0.13Hg7.24O0.5,92.0,original
Ba1.72Cu1.39O1.31Pr0.75,92.0,original
Ba1.72Cu1.39O0.48Y2.04,92.0,original
Bi2.82Ca1.05Cu0.76O1.59Pb0.53Sr3.22,92.0,original
Ba1.72Cu1.39O1.04Y2.04,92.0,original
Ca0.61Cu0.76O1.31Pb1.51Sr3.22Tl2.14Y0.49,92.0,original
Ba1.72Cu1.39Eu6.81O1.17,92.0,original
Ba1.72Cu1.39O1.2Y2.04,92.0,original
Ba1.72Cu1.39O1.06Y2.04,0.0,synthetic
Bi3.16Ca1.05Cu0.76O1.66Sr3.22,92.0,original
Ba1.72Cu1.36O1.32Y2.04,92.0,original
Ba1.72Cu1.39Gd8.95O1.25,92.0,original
Ca0.8Cu0.76Li2.1O1.31Sr3.22Tl3.05,92.0,original
Ba1.72Cu1.39O1.17Rb0.78Y1.68,92.0,original
Ba1.61Cu1.39O1.33Y2.04,92.0,original
Ba1.57Cu1.39O1.3Y2.04,92.0,original
Ba1.72Cu1.38O1.29Y2.04,92.0,original
Ba1.72Cu1.36O1.29Y2.04,92.0,original
Ba1.72Cu1.39La2.46O1.3Y2.04,92.0,original
Ba1.72Ca0.92Cu0.76Gd0.8O1.31Tl4.41,92.0,original
Ba1.68Cu2.02O1.59Y1.77,92.0,original
Ba1.72Cu1.39Ho10.97O1.3,92.0,original
Ba1.68Cu1.39O1.31Y2.04,92.0,original
Bi3.16Ca0.8Cu0.76Dy2.02O1.66Sr3.22,92.0,original
Ba1.72Cd4.69Cu1.39O1.31Y1.09,92.0,original
Ba1.72Cd7.06Cu1.39O1.31Y0.61,92.0,original
Ba1.72Cu1.39Nd4.84O1.26,92.0,original
Ba1.72Cu1.39O1.21Sc0.19Y1.92,92.0,original
Ba1.51Cu1.39O1.26Y2.04,92.0,original
Ba1.72Cu1.39H1.83O1.29Y2.04,92.0,original
Ba1.72Cu1.39Dy10.45O1.31,92.0,original
Ba1.72Cu1.38O1.31Y2.04,92.0,original
Ba1.67Cu2.02O1.59Y1.68,92.0,original
Ba1.78Cu0.15Hg6.66O0.49,92.0,original
Ba1.61Cu1.39K0.41O1.28Y2.04,92.0,original
Ba1.72Cu1.39O1.3Y1.92,92.0,original
Ba1.71Cu2.02O1.59Y1.95,92.0,original
Ba1.72Cu1.39Ho10.97O1.28,92.0,original
Ba1.72Cu1.39Er7.65O1.3,92.0,original
Ba1.72Cu1.39Nd4.84O1.29,92.0,original
Ba1.72Cu1.39O1.3Y1.98,92.0,original
Ba1.72Cu1.39Ho10.97O1.31,92.0,original
Ba1.72Cu1.33O1.31Y2.04,92.0,original
Ba1.72Cu1.3O1.33Re0.17Y2.04,92.0,original
Bi3.16Cu0.76O1.59Sr4.98,92.0,original
Ba1.72Cu1.37O1.31Y2.04,92.0,original
Ba1.72Cu1.39O1.19Sc0.44Y1.8,92.0,original
Ba1.72Cu1.39H3.25O1.29Y2.04,92.0,original
Ba1.72Cu1.39Dy9.92O1.28,92.0,original
Ba1.72Cu1.39O1.29Y0.13Yb7.91,92.0,original
Ba1.72Cs0.99Cu1.39O1.16Y1.8,92.0,original
Ba1.61Cu1.39O1.21Y2.28,92.0,original
Ba1.72Cu1.39H1.1O1.29Y2.04,92.0,original
Ba1.72Cu1.36O1.28Y2.04,92.0,original
Bi3.16Ca0.8Cu0.76O1.66Sr3.22Yb1.91,92.0,original
Ba1.72Cu1.39O1.28Sm6.8,92.0,original
Bi3.16Ca1.05Cu0.76Lu0.58O1.67Sr2.87,92.0,original
Ba1.72Cu1.33O1.28Y1.8,92.0,original
Ba1.72Cu1.39Er7.06O1.31,92.0,original
Ba1.72Cu1.39H0.91O1.29Y2.04,92.0,original
Ba1.72Cu1.39O1.29Y0.61Yb5.91,92.0,original
Ba1.51Cu1.39Nd4.84O1.3,92.0,original
Ba1.4Cu1.39O1.18Rb1.65Y2.04,92.0,original
Ba1.72Cu1.39O1.24Y2.04,91.0,original
Ba1.72Cu1.36O1.29Y2.04,91.0,original
Ba1.72Cu1.39O1.28Y2.04,91.0,original
Ba1.72Cu1.39O1.27Y2.04,91.0,original
Ba1.72Cu1.39O1.31Y2.04,91.0,original
Ba1.72Cu1.39O1.29Y2.04,91.0,original
Ba1.72Cu1.39O1.3Y2.04,91.0,original
Ba1.72Cu2.02O1.59Y1.8,91.0,original
Bi3.16Ca1.05Cu0.76O1.65Sr3.22,91.0,original
Bi3.16Ca1.05Cu0.76O1.62Sr3.22,91.0,original
Cu0.13Sr1.46,91.0,original
Ba1.72Cu1.39F1.19O1.23Y2.04,91.0,original
Ba1.72Cu1.39F1.4O1.23Y2.04,91.0,original
Ba1.72Cu1.39F1.87O1.23Y2.04,91.0,original
Ba1.72Cu0.13Hg7.24O0.5,91.0,original
Ba1.72Ca1.05Cu1.39Ni2.3O1.28Y2.04,91.0,original
Ba1.72Cu1.39O1.27Sm6.8,91.0,original
Bi3.16Ca1.05Cu0.76O1.66Sr3.22,91.0,original
Ba1.72Cu1.39Nd4.84O1.31,91.0,original
Ba1.72Cu1.39O1.31Tm6.55,91.0,original
Ba1.72Cu1.39Gd8.95O1.3,91.0,original
Ba1.72Cu1.39F0.41O1.31Y2.04,91.0,original
Ba1.72Cu1.39F0.93O1.31Y2.04,91.0,original
Ba1.72Ca1.42Cu0.76O1.57Tl7.28,91.0,original
Ba1.72Cu1.39O1.31Tb1.35Y1.8,91.0,original
Ba1.72Cu1.39O1.31Tb4.41Y1.28,91.0,original
Ba1.72Cu0.13Hg7.24O0.55,91.0,original
Ba1.72Cu1.36O1.38Y2.04,91.0,original
Ba1.72Cu0.13O1.03Tl8.96,91.0,original
Ba1.72Cu1.39Dy10.45O1.31,91.0,original
Ba1.72Cu0.13Hg5.77Mn2.79O0.53,91.0,original
Ba1.61Cu1.39O1.31Y2.04,91.0,original
Ba1.72Cu1.39Er7.65O1.29,91.0,original
Ba1.72Cu1.33O1.34Y2.04,91.0,original
Ba1.72Cu1.3O1.36Re0.17Y2.04,91.0,original
Ba1.72Cu1.39O1.33Y2.02,91.0,original
Ba1.72Cu1.39O1.3Y1.8,91.0,original
Bi2.15Ca1.05Cu0.76O1.59Pb1.83Sr3.22,91.0,original
Na0.14O0.2W5.25,91.0,original
Ba1.72Ca3.54Cu2.02F7.21O1.76,91.0,original
Ba1.72Cu1.39H0.44O1.29Y2.04,91.0,original
Bi3.16Ca0.8Cu0.76Gd1.7O1.67Sr3.22,91.0,original
Bi3.16Ca0.8Cu0.76Eu1.27O1.66Sr3.22,91.0,original
Ba1.72Cu1.39Er7.65O1.3,91.0,original
Ba1.72Cu1.39Gd8.95O1.31,91.0,original
Ba1.72Cu1.37O1.31Y2.04,91.0,original
Ba1.72Ca0.92Cu0.76Nd0.35O1.31Tl4.41,91.0,original
Bi3.16Ca0.8Cu0.76Dy2.02O1.66Sr3.22,91.0,original
Ba1.72Cu1.39Lu3.29O1.31,91.0,original
Ba1.72Cu1.39O1.3Sm6.8,91.0,original
Ba1.72Cu1.38O1.31Y2.04,91.0,original
Ba1.72Cu1.39O1.31Sm6.8,91.0,original
Ba1.78Cu0.15Hg6.66O0.49,91.0,original
Ba1.72Cu1.36O1.31Y2.04,91.0,original
Ba1.68Cu1.39O1.26Y2.14,91.0,original
Ba1.51Cu1.39O1.19Rb1.07Y2.04,91.0,original
Ba1.72Cu1.39F4.2Y2.04,91.0,original
Ba1.51Cu1.39O1.26Y2.04,91.0,original
Ba1.72Cu1.3O1.28Y1.68,91.0,original
Ba1.72Cu1.38O1.29Y2.04,91.0,original
Ba1.72Cu1.39Nd4.84O1.06,91.0,original
Ba1.72Cu0.13Hg6.51O0.57,91.0,original
Ba1.72Cu2.02O1.31Y2.04,91.0,original
Bi3.16Ca1.05Cu0.76O1.66Sr2.87Y0.13,91.0,original
Ba1.72Cs1.52Cu1.39O1.17Y1.68,91.0,original
Ba1.51Cu1.39O1.45Y2.04,91.0,original
Ba1.51Cu1.39O1.53Y2.04,91.0,original
Ba1.72Cu1.39O1.31Tm7.72,91.0,original
Ba1.72Cu1.39O1.29Tm7.72,91.0,original
Ba1.72Cu1.39F8.52O0.94Y2.04,91.0,original
Ba1.72Cu1.38O1.27Y2.04,91.0,original
Bi3.16Ca1.05Cu0.76O1.67Sr3.22,91.0,original
Ba1.72Cu1.39K0.69O1.17Y1.68,91.0,original
Bi3.16Ca1.05Cu0.76O1.66Sr2.87Yb1.91,91.0,original
Ba1.72Cu1.35O1.31Y2.04,91.0,original
Ba1.72Cu1.39O1.31Y2.04,90.0,original
Ba1.72Cu1.39O1.03S0.95Y2.04,90.0,original
Ba1.72Cu1.39O1.35Y2.04,90.0,original
Ba3.77Cu3.28O3.25Y4.44,90.0,original
Ag0.57Ba1.72Cu1.3O1.31Y2.04,90.0,original
Ba1.72Cu1.33O1.39Y2.04,90.0,original
Bi3.16Ca1.05Cu0.76O1.59Sr3.22,90.0,original
Ba1.72Ca1.05Cu0.76O1.59Tl8.96,90.0,original
Ba1.72Cu2.02O1.59Y1.68,90.0,original
Ba1.72Cu2.02O1.59Y1.56,90.0,original
Ba1.72Ca0.18Cu2.02O1.59Y1.32,90.0,original
Bi3.16Ca0.92Cu0.76O1.66Sr3.22,90.0,original
Ba1.72Cu1.39Gd8.95O1.31,90.0,original
Ba1.72Cu1.39O1.3Y2.04,90.0,original
Bi3.16Ca1.05Cu0.76O1.62Sr3.22,90.0,original
Ba1.72Cu1.39O1.3Sm6.8,90.0,original
Ba1.72Cu1.39Gd8.95O1.3,90.0,original
Ba1.72Cu1.39Eu6.81O1.32,90.0,original
Ba1.72Cu1.39O1.31Tm7.72,90.0,original
Ba1.75Cu1.42Er7.65O1.31,90.0,original
Ba1.72Cu1.39Er7.65O1.31,90.0,original
Ca0.68Cu0.76Hg2.09Nd1.34O1.2Pb2.16Sr3.22,90.0,original
Ba1.72Cu1.2In0.42O1.28Y2.04,90.0,original
Ba1.72Cu1.39O1.28Y2.04,90.0,original
Ba1.72Cu1.39Er7.65O1.29,90.0,original
Ba1.72Cu0.13Hg5.77O0.56V0.1,90.0,original
Ba1.72Cu1.39O1.31Pr0.75,90.0,original
Ca2.17Cu1.39Ge0.23O1.95Sr3.22,90.0,original
Ca1.05Cu0.76O1.31Sr3.22,90.0,original
Ca1.05Cu0.76La0.4O1.31Sr2.34Tl4.41,90.0,original
Ba1.72Cu1.36Er7.65O1.24,90.0,original
Ba1.72Cu1.39O1.29Y2.04,90.0,original
Ba1.72Cu1.39Dy10.45O1.03,90.0,original
Ba1.72Cu1.39Nd4.84O1.3,90.0,original
Ba1.72Ca4.78Cu2.65Hg7.24O3.27Tl4.41,90.0,original
Ba1.72Cu1.39O1.29Sm6.8,90.0,original
Ba1.72Cu1.39Dy10.45O1.27,90.0,original
Ba1.72Cu1.39O1.28Sm6.8,90.0,original
Ba1.72Cu1.39Dy10.45O1.22,90.0,original
Ba1.72Cu1.39O1.26Sm6.8,90.0,original
Ba1.72Cu1.39Dy10.45O1.25,90.0,original
Ba1.72Cu0.13F5.12Hg7.24O0.48,90.0,original
Ba1.67Cu1.39O1.31Y2.04,90.0,original
Ba1.67Cu1.36O1.31Y2.04,90.0,original
Ba1.72Cu1.39O1.27Y2.04,90.0,original
Bi3.16Ca1.05Cu0.76O1.66Sr3.22,90.0,original
Ba1.72Cu1.33O1.33Y2.04,90.0,original
Ba1.72Cu1.3O1.35Re0.17Y2.04,90.0,original
Ba1.72Cu1.39O1.27Sm6.8,90.0,original
Ba0.64Ca1.05Cu1.27La1.11O1.31P0.29,90.0,original
Ba1.72Ca2.29Cu1.39F10.35O1.03,90.0,original
B1.62Lu3.29Ru2.65,10.0,original
C0.24I20.53Y4.44,10.0,original
Hf5.89V1.53Zr1.39,10.0,original
Ba0.64Bi0.21Hg2.46O0.2Pb1.18,10.0,original
Cu0.13La2.35O0.48,10.0,original
Hf6.89V1.53Zr,10.0,original
B1.97Nb1.1,10.0,original
B2.33Nb1.1,10.0,original
B2.51Nb1.1,10.0,original
As14.67Ca12.24Fe11.54Pt1.75,10.0,original
Cu0.13La1.83Nd1.84O0.48,10.0,original
Cu0.13La2.18O0.48Sr0.15,10.0,original
In1.68La3.98,10.0,original
Fe1.02Se0.48,10.0,original
Hf8.88V1.53,10.0,original
W5.25,10.0,original
B1.62Ni3.3Pd1.12Y2.04,10.0,original
Ta4.17W,10.0,original
Ce0.83Cu0.13Nd8.99O0.48,10.0,original
Hf2.9V1.53Zr2.54,10.0,original
P1.59,10.0,original
Ga1.1V2.12Zr0.84,10.0,original
Nb0.47Zr1.58,10.0,original
Nb0.47Ta1.22Zr0.81,10.0,original
Al0.98Nb3.63,10.0,original
Nb0.85Ta0.96,10.0,original
Al0.19V0.46,10.0,original
Lu3.29Tc24.69,10.0,original
Fe1.02Se0.54,10.0,original
Mo1.1Re4.4,10.0,original
Cu0.13La2.23O0.48,10.0,original
Hf0.41Mo1.03,10.0,original
B3.4Rh7.17Tm7.72,10.0,original
As0.4Co0.32Fe0.89P0.47Pr0.75,10.0,original
Fe1.02Se0.51,10.0,original
Hf1.4Nb0.91,10.0,original
Rh0.44Zr2.43,10.0,original
Co0.13Ga0.18Nb0.78,10.0,original
Fe1.02Se0.47,10.0,original
As0.65F0.46Fe1.02La1.11,10.0,original
Hf8.88Ta0.42V1.53,10.0,original
B1.62Ho6.55Lu1.25Ni4.79,10.0,original
As1.47Co0.96Eu2.24Fe1.99Sr0.86,10.0,original
As0.65Fe1.02Na3.91,10.0,original
La0.84P22.25Rh7.17,10.0,original
Cu0.13La2.4O0.48,10.0,original
Ba1.72Cu1.39Nd3.84O1.24Pr0.13,10.0,original
Cu0.13La1.76Nd1.84O0.48,10.0,original
K5.32O1.03Os6.17,10.0,original
Cu0.13Ho0.36La2.13O0.48Sr0.14,10.0,original
Be21.75Re1.43,10.0,original
Ga4.56Mo1.1,10.0,original
Mo3.59Re1.43,10.0,original
Re1.06Ta0.96,10.0,original
Nb0.47Sn0.11V0.14,10.0,original
Nb0.59Ti1.59,10.0,original
Ir3.36Nb3.63,10.0,original
Sn0.42V2.32,10.0,original
Nb2.37Sn0.78V0.73,10.0,original
Al2.03Mo3.59,10.0,original
Nb1.1,10.0,original
Ir0.58Nb0.59,10.0,original
N5.82Zr3.7,10.0,original
Nb0.41Ti0.62Zr1.27,10.0,original
Nb0.47Zr1.71,10.0,original
B1.62Co0.32Ni4.54Y2.04,10.0,original
Nb0.15Ta3.9,10.0,original
Eu8.2Mo7.34S8.78,10.0,original
B1.9Nb1.1,10.0,original
Al0.16V0.54,10.0,original