formula,Tc,type
C0.41Ti2.46Y3,13.0,original
Mo0.9,13.0,original
As1.47Co1.68Fe1.79Sr1.46,13.0,original
Fe1.02Se0.11Te1.63,13.0,original
Fe1.06Se0.23Te1.13,13.0,original
As0.65F0.62Fe1.02La1.11,13.0,original
As0.4F0.62Fe1.02La1.11P0.47,13.0,original
Si0.18V2.32,13.0,original
Ba1.72Cu1.39O1.19Sm6.8,13.0,original
N6.29Nb1.1,13.0,original
Cl5.71N5.82Zr3.7,13.0,original
Tc11.96,13.0,original
Tc11.59,13.0,original
V0.72,13.0,original
Nb0.21Si0.25V2.08,13.0,original
B1.62Ni4.74Y2.04,13.0,original
Mo0.9Ti0.55,13.0,original
Mo0.85V0.1,13.0,original
As0.65Fe1.02Pr0.67,13.0,original
As1.47Ba0.64Co0.89Fe2.01,13.0,original
As0.65Co0.43Fe0.86Sm6.8,13.0,original
As1.47Ca1.05Fe2.24,13.0,original
Cu0.13La2.38O0.48,13.0,original
Cu0.13La2.35O0.48,13.0,original
Ba1.72Cu1.39O1.3Pr0.36Y0.85,13.0,original
Bi1.47K2.87O0.2,13.0,original
Ga0.87In0.24V2.32,13.0,original
Al0.2Nb0.63,13.0,original
Nb0.85W,13.0,original
C0.13La2.4Th0.28,13.0,original
B1.62Ni4.79Tb1.35Y1.8,13.0,original
Nb0.91,13.0,original
B1.62Mn1.37Ni4.54Y2.04,13.0,original
Hf9.88P1.78Ru2.65,13.0,original
Mo7.34Pb3.13S8.67,13.0,original
Mo3.59Os3.03,13.0,original
Ga0.24V0.54,13.0,original
Hf0.41Mo1.03,13.0,original
Cl8.18N5.82Zr0.31,13.0,original
Cu0.12La2.33O0.48,13.0,original
Fe1.02Se0.23Te0.7,13.0,original
Fe1.05Te2,13.0,original
Te2,13.0,original
As14.67Ca11.74Fe12.54La0.25Pt7.15,13.0,original
As0.65Co0.21Fe0.93La1.11,13.0,original
Mo7.78Pb3.13S8.78,13.0,original
Ga1.1V2.16,13.0,original
Ge0.32Nb3.63Sn0.34,13.0,original
Al0.45Ge0.32Nb3.63,13.0,original
Al0.45Ge0.32Nb1.1,13.0,original
Ga0.19V0.53,13.0,original
V0.54,13.0,original
Fe1.02Se0.2Te1.25,13.0,original
Cl8.18Li1.07N5.82Zr3.7,13.0,original
As1.47Fe1.92Pt0.59Sr1.46,13.0,original
As0.65FeNa3.91,13.0,original
As1.39Ca1.05Fe2.3P0.1,13.0,original
As1.47Eu6.81Fe2.12Rh0.13,13.0,original
B1.62Ni4.79Tb2.05Y1.68,13.0,original
Ba1.61K0.41O0.48Pb2.64,13.0,original
Bi3.16Cu0.13Eu2.66O1.12Sr2.52,13.0,original
Cu0.13O0.75Sr3.22,13.0,original
Bi3.16Cu0.13O1.03Sr3.22,13.0,original
Ce0.71Cu0.13Gd6.59O0.48Pr0.83,13.0,original
Cu0.13La2.15Nd0.59O0.48,13.0,original
Ba0.64Bi0.21O0.2Pb2.32,13.0,original
Al0.98Nb2.49V0.66,13.0,original
Ga1.1Nb2.87V0.42,13.0,original
Mo6.09Pb3.13S7.66,13.0,original
Nb1.1P1.78S0.95,13.0,original
Al0.15Nb0.67,13.0,original
Mo0.43,13.0,original
Nb0.59W2.06,13.0,original
Ga0.2Nb0.77,13.0,original
C10.41Rb17.22,13.0,original
Cl8.18Li2.83N5.82Zr3.7,13.0,original
Ga0.18V0.58,13.0,original
Nb0.47W2.59,13.0,original
Fe1.06Te1.75,13.0,original
Fe1.09Se0.11Te1.63,13.0,original
B1.62Gd0.8Ni4.79Y1.8,13.0,original
Al1.34As1.47Ca4.78Fe2.3O1.03Ti2.72,13.0,original
As1.47Co0.96Eu0.93Fe1.99Sr1.19,13.0,original
B1.62La3.98N15.88Ni4.79,13.0,original
As1.47Ba0.64Fe2.27,13.0,original
As1.47Ba0.64Co0.41Fe2.12Mn0.24,13.0,original
As14.67Ca12.24Fe11.88Pt8.39,13.0,original
Cu0.13La2.32O0.48,13.0,original
C0.14Y1.8,13.0,original
Nb3.63Sb0.65Sn0.25,13.0,original
Ga0.16Nb0.85,13.0,original
C0.4Y3.96,13.0,original
B1.62Mg3.07Mn0.38,13.0,original
V0.46,13.0,original
Ba1.72Cu1.39O1.13Y2.04,13.0,original
Ga0.2V0.56,13.0,original
N7.12Nb1.1,13.0,original
Ga1.1Ta0.94V2.16,13.0,original
B1.62La3.98N17.65Ni4.79,13.0,original
B1.62Co0.32Lu3.29Ni4.67,13.0,original
Al0.98Mo0.22Nb3.25,13.0,original
Mo7.34Pb2.81Se4.83Yb0.92,13.0,original
Ga0.18V0.52,13.0,original
Hf1.4N5.46Nb0.91,13.0,original
Ga0.15V0.6,13.0,original
Cu0.13La2.41O0.48,13.0,original
As1.47Co0.96Eu4.87Fe1.99Sr0.19,13.0,original
As1.47Ba0.64Fe2.23,13.0,original
Mo0.46Nb0.48,13.0,original
Ba1.72Cu1.39O1.19Sm6.11,13.0,original
Bi1.47K4.23O0.2,13.0,original
Bi1.47K3.96O0.2,13.0,original
Ga0.27V0.51,13.0,original
Nb0.47Sn0.11Ta0.55,13.0,original
Nb2.37Sn0.78Ta2.56V0.34,13.0,original
Mo2.35,13.0,original
Ga0.21Nb0.78,13.0,original
Al0.35B1.62Mg1.86,13.0,original
Ru2.65Si0.25Zr3.7,13.0,original
Mo7.34Pb2.48Se4.83Yb1.91,13.0,original
Ga0.17V0.53,13.0,original
Mo7.34Se4.53Tl4.41,13.0,original
Lu3.29,13.0,original
As1.47Fe2.3K3.68Sr0.22,13.0,original
As1.47Ba0.64Fe2.21,13.0,original
Cl8.18Li0.85N5.82Zr3.7,13.0,original
As0.53Co0.32Fe0.89P0.19Pr0.75,13.0,original
As1.47Ca0.86Eu0.93Fe1.02,13.0,original
As0.65F1.35Fe0.99La1.11,13.0,original
Fe1.02Se0.11Te1.5,13.0,original
As0.65Fe1.01Li7.24,13.0,original
Mo1.1S2.07,13.0,original
As1.47Fe2.3La1.11,13.0,original
Li7.24O0.48Ti4.19,13.0,original
Ga0.17V0.54,13.0,original
Ce0.71Cu0.13Gd4.51Pr1.01,13.0,original
Li7.53O0.48Ti8.35,13.0,original
Ga0.29V0.5,13.0,original
B1.62Ni3.55Pd0.92Y2.04,13.0,original
B1.62Ni3.05Pd1.33Y2.04,13.0,original
B1.62Co0.14Ni4.64Y2.04,13.0,original
Nb1.04,13.0,original
Mo0.72Nb0.21,13.0,original
C10.41H9.8N5.23Na3.91Rb11.45,13.0,original
B1.62Ni3.8Pt0.83Y2.04,13.0,original
V0.55,13.0,original
Ga0.2V0.55,13.0,original
Ga0.22V0.55,13.0,original
N5.17Nb1.1,13.0,original
As1.47Co0.77Fe1.99Sr1.46,13.0,original
Mo0.66Re0.47,13.0,original
N3.68Ta5.24,13.0,original
Cu0.13La2.26O0.48,12.0,original
Cu0.13La2.38O0.48,12.0,original
Bi3.16Cu0.13O1.09Sr3.04,12.0,original
Cu1.2O1.35Sr3.22Ti1.16Y2.04,12.0,original
Cu0.13La1.62O0.48Sm3,12.0,original
Ba1.72Cu0.13O1.03Tl8.96,12.0,original
Al0.14Ba0.97Cu1.27O1.32Sr0.93Y2.04,12.0,original
Ba0.64Bi0.21O0.2Pb2.32,12.0,original
Ce4.01Cu0.76Ga0.24O1.76Sr3.22Y2.76,12.0,original
Ba1.72Cu1.39O1.3Pr0.36Y0.85,12.0,original
Ba1.72Cu0.13Hg5.41Mo0.16O0.64,12.0,original
Cu0.13La1.76Nd1.84O0.48,12.0,original
Ce0.71Cu0.13O0.48Sm11.73,12.0,original
Cu0.13La2.19Nd0.35O0.48,12.0,original
Cu0.13La2.03Nd0.84O0.48,12.0,original
Bi1.47K3.14O0.2Sr0.4,12.0,original
Cu0.13La2.16O0.48Sr0.17,12.0,original
Ce0.71Cu0.13Nd9.09O0.48,12.0,original
Ce0.71Cu0.12Nd9.09O0.48,12.0,original
Ba1.72Cu1.96O1.59Y2.04Zn0.17,12.0,original
Cu0.13La2.33O0.47,12.0,original
Ce0.71Cu0.13Gd9.94Nd3.54O0.48,12.0,original
Cu0.76O1.59Ru2.65Sm6.8Sr3.22,12.0,original
Li7.61O0.48Ti8.31,12.0,original
Cu0.13La2.45O0.48,12.0,original
Mo1.1N5.82,12.0,original
,12.0,original
Hf0.41Mo1.03,12.0,original
Nb1.1,12.0,original
Mo0.22Tc8.62,12.0,original
Nb1.1Ru8.24,12.0,original
N5.82Ta5.24,12.0,original
C10.41Li14.58N5.82Na3.91,12.0,original
C10.41H9.36N4.99Na3.91Rb11.45,12.0,original
C10.41Cs10.49Na7.87,12.0,original
C10.41Cs10.49Li14.58,12.0,original
Ru2.65Si0.25Zr3.7,12.0,original
Al0.56B1.62Mg1.2,12.0,original
B1.62Ni4.79Y1.68,12.0,original
B1.62Dy2.55Ni4.79Y1.44,12.0,original
S0.95,12.0,original
C10.41H7.82K16.22N4.16Na3.91,12.0,original
Al0.35B1.62Mg1.86,12.0,original
Ga0.16V0.53,12.0,original
C0.36Th0.64Y3.96,12.0,original
Mo7.78Pb3.13S8.78,12.0,original
Mo0.6Re0.54,12.0,original
Mo0.16Nb0.78,12.0,original
Mo0.85W,12.0,original
Mo0.85Ti0.72,12.0,original
As1.47Ca1.05Fe2.3,12.0,original
As0.65Fe1.02Li7.24,12.0,original
As0.65Fe1.02Na1.93,12.0,original
Fe1.02Te1.75,12.0,original
Fe1.02O0.2P1.78Sc4.95Sr3.22,12.0,original
As0.65F0.41Fe1.02Sm6.8,12.0,original
As0.65Fe0.96La1.11,12.0,original
As1.47Ba0.32Co1.41Fe1.87K1.5,12.0,original
As1.47Ba0.32Co1.14Fe1.94K1.5,12.0,original
As1.47Ca1.05Co1.09Fe1.96,12.0,original
As1.47Co0.96Eu1.2Fe1.99Sr1.12,12.0,original
As0.65Fe0.95Pr0.59,12.0,original
FeSe0.11Te1.63,12.0,original
Mo1.1,12.0,original
As1.47Ba0.48Fe2.3K0.69,12.0,original
As1.47Ba0.45Fe2.3K0.87,12.0,original
Mo1.1S2.07,12.0,original
Li7.24O0.48Ti8.52,12.0,original
Ba1.72Ca2.29Cu1.39O2.15Tl8.96,120.0,original
Ba1.72Ca1.05Cu0.76Hg5.77O1.12V0.1,119.0,original
B0.37Ba1.18Ca2.29Cu1.39O1.87Sr0.58,119.0,original
Ba1.72Ca2.29Cu1.39O2.15Tl8.96,119.0,original
Ba1.72Ca2.29Cu1.39Hg7.24O1.67,119.0,original
Ba1.72Ca2.29Cu1.39O2.15Tl8.96,118.0,original
Ba1.72Ca2.79Cu1.39O2.06Tl7.14,118.0,original
Ba1.72Ca3.04Cu1.39O2.02Tl6.23,118.0,original
Ba1.72Ca3.54Cu2.02O2.54Tl6.23,118.0,original
Ba1.72Ca1.05Cu0.76Hg5.77O1.15W,118.0,original
Ba1.72Ca1.05Cu0.76Hg6.51O1.09W0.46,118.0,original
Ba1.72Ca2.29Cu1.39O1.87Tl4.41,118.0,original
Ba1.72Ca2.29Cu1.39Hg6.51O1.66Pb0.21,118.0,original
Bi2.66Ca2.29Cu1.39F4.07O1.93Pb0.86Sr3.22,118.0,original
Ba1.72Ca4.78Cu3.09O2.48,118.0,original
Cr0.45Cu0.13,118.0,original
Ca2.79Cu1.39O1.87Pb1.51Sr2.52Tl2.14,117.0,original
Ba1.72Ca3.54Cu2.02O2.43,117.0,original
Ba1.72Ca2.29Cu1.71Li1.73O1.58Tl,117.0,original
Ba1.72Ca4.78Cu3.09O2.36,117.0,original
Ba1.72Ca4.78Cu3.09O2.34,117.0,original
Ba1.72Ca2.67Cu1.39O2.1Tl7.6,116.0,original
Ba1.72Bi0.12Ca2.29Cu1.39O1.87Tl3.5,116.0,original
Ba1.72Ca3.54Cu2.02O2.25,116.0,original
Ba1.72Ca4.78Cu3.09O2.33,116.0,original
Bi1.14Ca2.29Cu1.39Nd0.35O2.15Pb3.13Sr3.22Tb1.35,116.0,original
Ba1.72Ca4.78Cu3.09O2.31,116.0,original
Ba1.72Ca2.29Cu1.39O2.15Tl8.96,115.0,original
,115.0,original
Ca2.29Cu1.39O1.87Pb1.51Sr3.22Tl2.14,115.0,original
Ba1.72Ca1.05Cu0.76Hg5.77O1.12V0.1,115.0,original
Ba1.72Ca1.05Cu0.76Hg5.77O1.06,115.0,original
Ca1.05Cu1.08O1.26Pb1.51Sr3.22,115.0,original
Ba1.72Ca3.54Cu2.02Hg7.24,115.0,original
Bi1.14Ca2.29Cu1.39Nd0.35O2.15Pb3.13Sr3.22Tb1.35,115.0,original
Ba1.72Be1.62Ca0.18Cu1.71O1.5Tl2.14,115.0,original
Ba1.72Be1.42Ca1.67Cu2.34O2.12Tl2.14,115.0,original
Br33.28C10.58H3.58,115.0,original
Ba1.72Ca4.78Cu3.09O2.28,115.0,original
Ba1.72Ca1.05Cu0.76O1.59Tl8.96,115.0,original
Ba0.64Ca1.05Cu0.76O0.89Tl4.41,114.0,original
Ba1.72Ca2.29Cu1.39O2.1Tl8.96,114.0,original
Ba1.72Ca3.54Cu2.02O2.43Tl4.41,114.0,original
Ba1.72Ca2.29Cu1.39O1.87Tl4.41,114.0,original
Bi3.16Ca2.29Cu1.39Sr3.22,114.0,original
Ba1.72Ca1.05Cu0.76Hg5.77Mn2.79O1.09,114.0,original
Ba1.72Ca4.78Cu3.09O2.24,114.0,original
Ba1.72Ca1.05Cu0.76O1.59Tl8.96,114.0,original
Ca2.79Cu1.39O1.87Pb1.51Sr2.52Tl2.14,113.0,original
Ba2.8Ca3.54Cu2.65O2.99,113.0,original
Bi2.66Ca2.29Cu1.39F2.5O2.01Pb0.86Sr3.22,113.0,original
Ba1.72Ca2.67Cu1.39O2.13Tl7.23,113.0,original
Ba1.72Ca2.29Cu1.08Li1.73O1.55Si0.25Tl,113.0,original
Ba1.72Ca1.05Cu0.76O1.59Tl8.96,113.0,original
Ba1.72Ca1.05Cu0.76O1.55Tl8.96,112.0,original
Ba1.72Ca2.29Cu1.39O2.14Tl8.96,112.0,original
Ba1.72Ca2.54Cu1.39O2.13Tl8.05,112.0,original
Ca2.29Cu1.39O1.87Pb1.51Sr3.22Tl2.14,112.0,original
Bi2.82Ca2.29Cu1.39Sr3.22V0.1,112.0,original
Bi0.29Ca2.29Cu1.39Hg5.04O1.63Sr3.22,112.0,original
Bi3.16Ca2.29Cu1.39Sr3.22,111.0,original
Ba1.72Ca2.29Cu1.39O2.12Tl8.96,111.0,original
Ca2.29Cu1.39F16.63O1.09Sr3.22,111.0,original
Ba1.72Ca1.05Cu0.76O1.59Tl8.96,111.0,original
Bi2.66Ca2.29Cu1.39F0.93O2.09Pb0.86Sr3.22,111.0,original
Bi1.3Ca2.29Cu1.39O2.15Pb3.13Sr3.22Tb0.66,111.0,original
Ba1.72Ca2.29Cu1.39Li1.73O1.55Tl,111.0,original
Ba1.72Ca1.05Cu0.76O1.56Tl8.96,110.0,original
Ba1.72Ca2.29Cu1.39O2.11Tl8.96,110.0,original
Bi1.47Ca1.05Cu0.13Sr1.46,110.0,original
Ca0.16Cu0.13Sr0.87,110.0,original
Ba2.8Ca3.54Cu2.65O2.99,110.0,original
Ba1.72Ca1.05Cu0.76Hg5.77O1.06,110.0,original
Ba1.72Ca2.29Cu1.39Hg5.77O1.62,110.0,original
B0.73Ca3.54Cu2.02O2.43Sr3.22,110.0,original
Ba1.72Ca4.78Cu2.65Hg3.57O2.85Pb1.51,110.0,original
Ba1.72Ca2.29Cu1.39Hg7.24O1.65,110.0,original
Ba1.72Ca2.29Cu1.39O1.87Tl4.41,110.0,original
Ca0.14Cu0.13Sr0.81,110.0,original
Ca0.18Cu0.13Sr0.93,110.0,original
Ba1.72Ca3.54Cu2.02Hg7.24O2.71Tl4.41,110.0,original
Ba1.72Ca1.05Cu0.76Hg7.24O1.11,110.0,original
Ba1.72Be1.92Ca1.05Cu2.34O2.14Tl2.14,110.0,original
Ba1.72Ca1.05Cu0.75F0.41O1.58Tl8.96,110.0,original
Bi3.16Ca2.29Cu1.39O2.15Sr3.22,110.0,original
Cu0.13La2.4O0.48,12.0,original
B3.4Lu2.44Rh7.17Th0.83,12.0,original
Ce0.71Cu0.13O0.49Pr1.41,12.0,original
Ba1.72Cu1.39O1.3Pr0.21Sm4.73,12.0,original
Cu0.13La2.39O0.48,12.0,original
O1.03Ru2.51Sr3.22Y2.04,12.0,original
Li7.09O0.48Ti8.52,12.0,original
N7.3Nb1.1,12.0,original
Mn4.21Si0.25V2.08,12.0,original
Ga1.1Ni0.33V2.16,12.0,original
Au7.51Nb3.63,12.0,original
Ga0.87V2.32,12.0,original
As0.65Ru2.65Zr3.7,12.0,original
Hf0.9Mo0.97,12.0,original
Fe1.06Te2.12,12.0,original
As0.65F0.46Fe0.98Mn0.38Nd4.84,12.0,original
B1.62Ce0.41Ni4.79Y1.8,12.0,original
Te2.12,12.0,original
As0.65Ce5.81F0.15Fe1.02,12.0,original
As1.47Ca1.05Fe2.25,12.0,original
As0.65F0.62Fe1.02La1.11,12.0,original
Fe1.02Se0.11Te1.63,12.0,original
Hf9.88P1.78Ru2.65,12.0,original
As0.65Fe0.93La1.11,12.0,original
As14.67Ca12.24Fe11.93Pt8.3,12.0,original
N3.64Ta5.24,12.0,original
Ta5.24,12.0,original
As1.47Ba0.1Fe2.05K2.59,12.0,original
C0.24Co2.59Ni0.81Th3.56,12.0,original
Li7.83O0.48Ti8.18,12.0,original
Nb0.34Ta3.1,12.0,original
Cu0.13Mo3.59S4.3,12.0,original
Mo0.67Re0.45,12.0,original
Rh0.4Zr2.2,12.0,original
B1.62Ni2.3Pd1.94Y2.04,12.0,original
B1.62Ni1.8Pd2.35Y2.04,12.0,original
B1.62Dy2.02Lu2.61Ni4.79,12.0,original
Ga0.14Nb0.85,12.0,original
C10.41H8.15K10.77N4.34Na3.91,12.0,original
Mo7.34S8.78Sn0.78,12.0,original
B1.62Ni4.34Pd0.26Y2.04,12.0,original
Ga0.14V0.53,12.0,original
V0.54,12.0,original
Mo1.03Ta0.15,12.0,original
As1.47Ba0.43Fe2.3Na0.74,12.0,original
Fe0.98Se0.11Te1.63,12.0,original
Ca15.97Cu14.61O10.8Sr1.46,12.0,original
As3.12Ba1.72Fe2.23Ti8.52,12.0,original
B1.62Dy2.32Lu2.51Ni4.79,12.0,original
B3.4Lu3.29Rh7.17,12.0,original
Li7.5O0.48Ti8.37,12.0,original
As0.65Co0.55Fe0.83Sm6.8,12.0,original
B1.62La3.98N17.65Ni4.79,12.0,original
Ba1.72Cu1.39Nd3.59O1.3Pr0.17,12.0,original
Ba1.72Cu0.76Hg10.19O1.57Tl2.6Y2.04,12.0,original
Cu0.13La2.46O0.48,12.0,original
Cu0.13Ho0.36La2.33O0.48,12.0,original
Ga1.1V2.16,12.0,original
Al0.51Ge0.27Nb3.63,12.0,original
Mo0.22Si0.25,12.0,original
Cl8.18Li4.3N5.82Zr3.7,12.0,original
V0.53,12.0,original
V0.55,12.0,original
C0.41Lu0.91Th5.03,12.0,original
Mo7.34Pb3.13S6.54,12.0,original
Li7.75O0.48Ti8.22,12.0,original
Mo0.97W0.46,12.0,original
As1.47Fe2.11Pt0.22Sr1.46,12.0,original
As1.47Fe2.3K4.23,12.0,original
Mo3.59Os3.03,12.0,original
Mo0.91,12.0,original
Fe1.02La1.11P1.5,12.0,original
Cu0.76Gd8.95O1.59Ru2.37Sr3.22,12.0,original
Fe1.05Se0.11Te1.13,12.0,original
C0.94Ca1.05,12.0,original
Cu0.13La2.33O0.48,12.0,original
Br5.5C0.24I15.39Y4.44,12.0,original
Mo0.47Re0.69,12.0,original
B1.62Ni4.29Y2.04,12.0,original
B1.62Ho5.45Ni4.79Y0.85,12.0,original
La1.11Mo7.34Se4.83,12.0,original
Ga0.19Nb0.78,12.0,original
C0.41Lu2.61Th4.29,12.0,original
Nb0.97W0.46,12.0,original
C0.41Y4.44,12.0,original
Cl8.18Li1.22N5.82Zr3.7,12.0,original
Cl8.18Li1.95N5.82Zr3.7,12.0,original
Fe1.25Se0.17Te1.38,12.0,original
As1.47Ba0.64Co0.21Fe2.2,12.0,original
As1.47Ba0.64Fe2.18,12.0,original
As0.65Fe0.64Gd8.95Ir0.41,12.0,original
Cu0.12La2.33O0.48,12.0,original
As0.65Co0.21Fe0.93Sm6.8,12.0,original
As14.67Ca11.62Fe12.54Pt7.15Yb4.91,12.0,original
As0.65Fe0.99Na3.91,12.0,original
Au7.67Nb3.63,12.0,original
C0.14Y1.8,12.0,original
C0.14Y2.04,12.0,original
Ga1.1V2.23W0.55,12.0,original
Ga1.03V2.32,12.0,original
B1.62Co0.14Ni4.64Y2.04,12.0,original
Al0.98Nb3.29Ti1.03,12.0,original
Mo0.62Re0.51,12.0,original
Mo7.34Pb3.13S8.78,12.0,original
Ga0.16V0.55,12.0,original
C0.4V0.1Y3.96,12.0,original
Mo0.97Zr0.23,12.0,original
Hf1.5Mo0.9,12.0,original
Fe1.02Te2.19,12.0,original
As0.65Co0.77Fe0.77Pr0.59,12.0,original
Cl8.18K1.29N5.82Zr3.7,12.0,original
As0.65F0.46Fe1.02La1.11,12.0,original
As0.65FeNa3.91,12.0,original
As0.65F1.45Fe1.02Nd4.84,12.0,original
P1.78Ru2.65Zr3.7,12.0,original
B1.62Ni4.79Tb2.74Y1.56,12.0,original
Fe1.02La1.11P1.4,12.0,original
Li18.98O0.48Ti7.22,12.0,original
Rh0.33Zr2.74,12.0,original
Al0.98Mo0.22Nb3.25,12.0,original
Ga0.12V0.53,12.0,original
Hf1.9Mo0.85,12.0,original
La1.11Si1.59,12.0,original
Rh1.7Zr7.55,12.0,original
B3.4Rh7.17Y2.04,12.0,original
Tc11.09,12.0,original
Ba0.21Bi0.97K2.05O0.2Pb0.86,12.0,original
Ba0.54Bi0.46K0.41O0.2Pb1.83,12.0,original
Ba1.72Co1.68Cu1.14O1.32Y2.04,12.0,original
Ba1.72Cu1.39O1.14Y2.04,12.0,original
Ce0.71Cu0.13Gd8.95O0.47Sm5.76,12.0,original
N7.83Nb1.1,12.0,original
C0.13Y1.8,12.0,original
Cr0.13Si0.25V2.08,12.0,original
Ge0.32Nb3.63Sn0.34,12.0,original
N4.04Nb1.1,12.0,original
Cu0.51Mo7.34S8.78,12.0,original
B1.62Ni4.79Y2.04,12.0,original
C0.36Y3.96,12.0,original
Mo0.6W2.06,12.0,original
Mo0.35W3.12,12.0,original
FeSe0.43,12.0,original
Fe1.02Te1.6,12.0,original
As1.47Ba0.64Fe2.22,12.0,original
Mo0.53Re0.58,12.0,original
Rh0.48Zr2.43,12.0,original
Tc9.86V0.1,12.0,original
Ba0.64Bi0.29O0.2Pb2.16,12.0,original
Ba1.72Cu1.39Gd5.33O1.3Pr0.28,12.0,original
Li18.98O0.48Ti8.09,12.0,original
Cu0.12La2.25O0.48,12.0,original
Au1.85Nb0.78,12.0,original
B4.29Mo1.96Zr1.04,12.0,original
Mo0.6,12.0,original
C0.13Ru0.13Y1.8,12.0,original
Rh0.48Zr2.39,12.0,original
Al0.18Si0.17V2.32,12.0,original
Ga1.1V2.32,12.0,original
Ga0.22Mn0.18Nb0.78,12.0,original
Ga0.25Mn0.18Nb0.75,12.0,original
Br4.39C0.24I16.42Y4.44,12.0,original
B1.62Gd0.8Ni4.79Y1.8,12.0,original
Al0.16V0.54,12.0,original
C0.36Ru0.41Y3.96,12.0,original
C0.41La2.55,12.0,original
B1.62Ni4.79Y1.8,12.0,original
Fe1.02Se0.54,12.0,original
As1.47Ca0.73Fe0.99La36.95,12.0,original
Ba0.64Fe2.3S3.19,12.0,original
As3.12Eu6.81Fe4.5Ni0.51Rb5.68,12.0,original
Al0.24Ge0.48V2.32,12.0,original
As0.48Fe1.02La0.97P0.66,12.0,original
Cu0.12La2.26O0.48,12.0,original
Ba1.72Cu1.39O1.17Pr0.13Y1.56,12.0,original
Ba0.21Bi1.36K2.05O0.2,12.0,original
Mo0.5Re0.66,12.0,original
Mo7.34Pb3.13S7.66,12.0,original
Rh0.13Zr3.16,12.0,original
B1.62Ni4.79Tm7.72,12.0,original
H0.22Rh1.7Zr7.55,12.0,original
Al0.65B1.62Mg0.9,12.0,original
Nb0.47Ta2.56,12.0,original
Fe0.77Mn2.79Se0.45,12.0,original
As1.47Ba0.64Co0.88Fe2.02,12.0,original
As1.47Ba0.1Fe2.05K2.59Ni0.31,12.0,original
As0.65F0.67Fe0.64Ru0.69Sm6.8,12.0,original
As0.65Fe1.02Na3.91,12.0,original
As0.65F0.93Fe1.02La1.11,12.0,original
As0.48F0.62Fe1.02La1.11P0.29,12.0,original
Tc9.24V0.14,12.0,original
Al0.14Ge0.57V2.32,12.0,original
As0.65Co0.32Fe0.89La1.11,12.0,original
Cu0.13La2.42O0.48,11.0,original
Ce0.71Cu0.13Eu4.39La1.4O0.48,11.0,original
Bi1.47Cu0.13O1.03Pb3.13,11.0,original
Cu0.13La2.35O0.48,11.0,original
Ba1.4K1.5O0.48Pb2.97,11.0,original
Ba1.4K1.5O0.48Pb2.81,11.0,original
Ce3.41Cu0.76Gd12.57O2.15Sr3.22Ti4.19,11.0,original
Ce0.71Cu0.13O0.48Pr1.19Y0.31,11.0,original
Cu0.13La1.97Nd0.84O0.48,11.0,original
Cu0.13La1.86Nd1.84O0.48,11.0,original
Bi1.47K3.14O0.2Sr0.4,11.0,original
Ce0.71Cu0.12Nd9.09O0.48,11.0,original
Cu0.13La2.1Nd0.84O0.48,11.0,original
Ba1.08Cu1.39La1.83O1.29,11.0,original
Bi1.47O0.2Rb5.68,11.0,original
Bi1.64O0.2Rb5.11,11.0,original
Bi1.98O0.2Rb3.95,11.0,original
Bi2.15O0.2Rb3.38,11.0,original
Bi1.47K2.76O0.2,11.0,original
Cu0.76Eu6.81O1.59Ru2.65Sr3.22,11.0,original
Cu0.13La1.8Nd1.84O0.48,11.0,original
Cu0.76Gd8.95O1.59Ru1.81Sn0.16Sr3.22,11.0,original
Br22.17Ca2.04Cu0.13Na0.74,11.0,original
Cu0.13La2.26O0.48,11.0,original
Li7.24O0.48Ti8.52,11.0,original
C0.41La2.55,11.0,original
Cu0.13Mo4.84S5.42,11.0,original
Mo7.78Pb2.81S8.78,11.0,original
Nb0.78Zr0.81,11.0,original
Rh1.7Zr11.4,11.0,original
Zr3.24,11.0,original
Nb3.63Pt2.29,11.0,original
Au7.28Nb3.63,11.0,original
Ta5.24,11.0,original
C0.13La1.11,11.0,original
B1.62Er7.65Ni4.79,11.0,original
B1.62Ni4.79Tm7.72,11.0,original
B1.62Ni4.79Tb2.74Y1.56,11.0,original
La1.03Mo7.34Se4.83,11.0,original
Au4.57B1.97La1.11Pt3.5,11.0,original
Au1.78Nb0.8,11.0,original
Au1.85Nb0.78,11.0,original
Ga0.19Nb0.78,11.0,original
C10.41H9.47K10.77N5.05Na3.91,11.0,original
C10.41Cs10.49Na7.87,11.0,original
P3.64Ru11.04Zr3.7,11.0,original
B1.62Ni4.79Y2.04,11.0,original
B0.73,11.0,original
Cl8.18Li9.44N5.82Zr3.7,11.0,original
Cl8.18N5.82Na5.42Zr3.7,11.0,original
Eu1.97Mo7.78Pb2.16S8.78,11.0,original
W4.18,11.0,original
Mo0.9Zr0.46,11.0,original
Cu0.13La1.83Nd1.84O0.48,11.0,original
Li6.5Mg0.21,11.0,original
As0.65Fe0.96La1.11,11.0,original
Ba0.64Bi0.21O0.2Pb2.32,11.0,original
As1.47Ba0.64Co0.23Fe2.2,11.0,original
Fe1.09Te1.88,11.0,original
Fe1.04Se0.12Te1.58,11.0,original
Fe1.07Te2.25,11.0,original
Fe0.89Mn1.37Se0.45,11.0,original
As1.47Ba0.49Co1.32Fe1.89K0.63,11.0,original
As1.47Ba0.45Co1.44Fe1.86K0.85,11.0,original
As1.47Co1.08Fe1.96Sr1.46,11.0,original
As1.47Ba3.88Fe2.3O1.45Sc14.98,11.0,original
Ba0.64Fe2.3Se1.77,11.0,original
Ba0.64Fe2.17Se1.77,11.0,original
As14.67Ca12.24Fe11.29Pt9.51,11.0,original
Fe1.02Se0.17Te1.38,11.0,original
As1.47Ba0.64Co0.36Fe2.06Zn0.13,11.0,original
Fe2.29K4.23Se1.15,11.0,original
As1.47Ca0.81Fe1.02Nd0.79,11.0,original
Fe1.28H3.58Li5.77S0.69,11.0,original
As0.28Fe1.02H0.51P0.75Sm6.8,11.0,original
Fe1.02Te2.12,11.0,original
As1.42Ca1.05Fe2.3,11.0,original
As0.65F0.46FeLa0.83Mn0.24Y0.13,11.0,original
Bi2.49Ca2.29Cu1.39O2.15Pb0.86Sr3.22,109.0,original
Ba1.72Ca1.05Cu0.76O1.59Tl8.96,109.0,original
Ba1.72Ca3.54Cu2.02O2.71Tl8.96,109.0,original
Ca2.29Cu1.39O0.89Sr3.22,109.0,original