formula,Tc
La1.74Sr0.26Cu1O4,88.6
La1.07Pr0.85Sr0.08Cu1O4,88.55
La1.575Nd0.3Sr0.125Cu1O4,88.5
Sr3.5Ca11.5Cu24O41,88.5
La1.8Sr0.2Cu0.97Zn0.03O4,88.5
Ba0.47K0.53Bi0.995Pr0.005O3,88.5
K0.915Bi1.085O3,88.5
K1Bi1O3,88.5
C1Nb1,88.5
Mo0.401P0.155B0.444,88.5
Ba7.76Si46,88.5
La1.45Nd0.4Sr0.15Cu1O4,88.5
As1Bi1Pb1Sb1,88.4
As1Bi1Pb1,88.3
Be0.62Si0.38,88.3
C1Hf0.15Mo0.85,88.3
C0.46W0.54,88.2
Nb0.31Ta0.06Ti0.62,88.2
Pd0.05Ru0.05Zr0.9,88.1
Re3W1,88.1
Re0.83Ti0.17,88.1
V2Zr1,88.1
Nb0.75Si0.25,88.1
C1Nb1,88.1
V2.898Mn0.102Ga1,88.1
As1Bi1Pb1,88.1
As1Bi1Pb1Sb1,88
C0.4Mo0.6,88
Pd0.05Ru0.05Zr0.9,88
Rh0.1Zr0.9,88
C1Ta1,88
Nb2.58Ti0.42Al1,88
N0.85H2.55Na1K2C60,88
Na0.33V2O5,88
La0.9Pr0.1Pt2.1B2.4C1.2,88
Lu1Th3.4Ru0.6B4,88
Ba7.76Si46,88
Y1Rh4Si2B1,88
V0.709Ga0.151Al0.14,88
Cu2Mo6S6O2,88
Nb3Si1,88
La1Os2,88
Nb0.2Ta0.8C1,88
Mo0.1W0.9C1,88
Pu1Rh1Ga5,88
Zr1Ru1Ge1,88
Na1Fe1As1,88
C1S1,88
Dy0.4Tm0.6Ni2B2C1,88
Al2C1Mo3,88
Nd1Fe0.9Co0.1As1F0.11O0.89,88
La1.7Sr0.3Cu1O4,88
Sm1Fe0.94Ni0.06As1O1,88
Fe1Se1,88
Y1Ba2Cu3O6.9,88
Tm1Ba2Cu3O6.95,88
Y1Ba2Cu3O6.95,88
Y0.9Cd0.1Ba2Cu3O7,88
Y0.985Ca0.015Ba2Cu3O6.98,88
Y1Ba2Cu3O6.97,88
Y1Ba2Cu3O6.82,88
Yb0.8Lu0.2Ba2Cu3O6.94,88
Bi2Sr2.2Ca0.8Cu2O8,88
Tm1Ba2Cu3O6.96,88
Tm1Ba2Cu3O6.94,88
Y1Ba2Cu2.98Zr0.2O6.75,88
Bi2Sr2Ca0.8Gd0.2Cu2O8.26,87.99
Y1Ba2Cu3O6.9,87.9
Y1Ba2Cu3O6.887,87.9
Y1Ba2Cu3O7,87.9
Y1La0.2Ba1.8Cu3O7.46,87.9
Y1La0.2Ba1.8Cu3O7.77,87.9
Y1Ba2Cu3O6.98,87.8
Tm1Ba2Cu3O6.99,87.8
Sm1.05Ba1.95Cu3O6.87,87.8
Bi2Sr2Ca0.8Nd0.2Cu2O8.26,87.8
Lu0.85Pr0.15Ba2Cu3O7,87.8
Y1Ba2Cu3O6.93,87.8
Y1Ba2Cu3O6.93,87.7
Bi2Sr2Ca1Cu2O8,87.7
Yb0.6Lu0.4Ba2Cu3O6.92,87.7
Y1Ba2Cu3O7,87.6
Bi2Sr2Ca0.8Y0.2Cu2O8,87.6
Y1Ba2Cu3O6.9,87.5
Y1Ba1.75Sr0.25Cu3O6.928,87.5
Y1La0.2Ba1.8Cu3O7.57,87.5
La1Ba2Cu3O7,87.5
Y1Ba2Cu3O6.98,87.5
Y0.9Ca0.1Ba2Cu4O8,87.5
Y1Ba2Cu3O6.8,87.5
Y1Ba2Cu3O6.81,87.5
Y1Ba2Cu3O6.97,87.5
Y1Ba2Cu3O7.01,87.5
Y1Ba2Cu3F0.15O6.7,87.4
Y1Ba2Cu3O6.94,87.3
Y1Ba2Cu3O6.97,87.2
Y0.984Ca0.016Ba2Cu3O6.986,87.2
Bi2Sr2Ca1Cu2O8,87.2
Yb0.995Pr0.05Ba2Cu3O6.97,87.1
Y0.9Ca0.1Ba2Cu4O8,87.1
Yb1Ba2Cu3O6.93,87.1
Y1Ba2Cu3O6.98,87.1
Y1Ba1.86La0.14Cu3O6.98,87.1
Bi2Sr2Ca0.75Y0.25Cu2O8,87.05
Gd1Ba1.98Cu3.05O7,87
Y0.95K0.05Ba2Cu3O6.6,87
Y1Ba2Cu3O6.96,87
Y1Ba2Cu3O6.98,87
Y1Ba2Cu3O6.83,87
Y1Ba2Cu2.94Fe0.06O7,87
Y1Ba1.95La0.05Cu3O6.98,87
Y1Ba2Cu3O6.85,87
Bi2Sr1.8Ca1Dy0.2Cu2O8.26,87
Y1Ba2Cu3O6.852,87
Y1Ba2Cu3Li0.08O7,87
Y1Ba2Cu2.982Zn0.018O6.9,87
Y1Ba2Cu3O6.75,87
Bi2Sr1.6Ca1.2Y0.2Cu2O8.26,87
Y0.8Ca0.2Ba2Cu2.8Al0.2O6.88,87
Y1Ba2Cu3O6.8,87
Yb0.95Pr0.05Ba2Cu3O6.9,87
Y1Ba2Cu0.6O7,87
Y1La0.2Ba1.8Cu3O7.36,87
Y1La0.2Ba1.8Cu3O7.74,87
Hg1Ba2Cu1O4.108,87
Bi2Sr2Ca1Cu2O8.291,87
Y1Ba2Cu3S0.06O7.23,87
Y1Ba2Cu3S0.12O7.28,87
Y1Ba2Cu2.98Fe0.02O6.93,87
Y1Ba2Cu3O6.55,87
Y1Ba2Cu3O6.95,87
Y1Ba1.9Sr0.1Cu3O6.89,87
Y0.9Pr0.1Ba2Cu3O6.85,87
Y0.93Ca0.07Ba2Cu4O8,87
Bi2Sr2Ca0.8La0.2Cu2O8.26,87
Y2Ba4Cu7O15.09,87
Tm1Ba2Cu3O6.95,87
Y1Ba2Cu3S1O6,87
Y0.9Ca0.1Ba2Cu4O8,87
Bi2Sr2Ca0.9Y0.1Cu2O8.2,87
Y1Ba2Cu3O6.9,87
Hg0.9W0.1Ba2Cu1O4.2,87
Y1Ba2Cu3O6.85,86.9
Hg1Ba2Cu1O4.12,86.9
Gd1Ba1.5Sr0.5Cu3O6.93,86.8
Bi2Sr2Ca1Cu2O8.25,86.8
Nd1Ba2Cu3O6.95,86.7
Ge0.3Cu4Sr2Ca2.9Y0.1O11.1,86.7
Y1Ba1.8Sr0.2Cu3O6.98,86.7
Y1Ba2Cu3O6.85,86.7
Bi2Sr2Ca1Cu2O8.25,86.6
Y1Ba2Cu3O7.19,86.6
Y1Ba2Cu3O6.995,86.6
Y1Ba2Cu3O6.85,86.5
Yb0.925Pr0.075Ba2Cu3O6.97,86.5
Er2Ba4Cu7O14.92,86.5
Y1Ba1.5Sr0.5Cu3O6.96,86.5
Bi2Sr2Ca1Cu2O8,86.5
Y1Ba2Cu3O7,86.5
Y1Ba1.8La0.2Cu3O7.03,86.4
Y1Ba1.9Cu2.9Co0.1O7.02,86.4
Bi2Sr2Ca1Cu2O8.224,86.4
Bi2Sr2Ca1Cu2O8,86.3
Hg1Ba2Cu1O4.058,86.3
Bi2Sr1.6Y0.1Ca1.3Cu2O8.23,86.3
Y1Ba1.9Sc0.1Cu3O6.55,86.3
Y1Ba2Cu3Li0.1O7,86.3
Y1Ba2Cu3O6.66,86.3
Bi2Sr1.8Ca1Gd0.2Cu2O8.26,86.3
Bi2Sr1.8Ca1Eu0.2Cu2O8.25,86.2
Y1Ba2Cu3O7,86.2
Y0.9Ca0.1Ba2Cu4O8,86.2
Y1Ba2Cu3O6.96,86.1
Y1Ba2Cu3O6.84,86.1
Bi2Sr2Ca0.8Nd0.2Cu2O8.26,86.1
Y0.9Ca0.1Ba2Cu4O8,86.1
Y1Ba1.8Sc0.2Cu3O6.64,86
Y1Ba2Cu2.95Fe0.05O6.9,86
Dy1Ba2Cu3O6.94,86
Y1Ba2Cu3O6.87,86
Y0.7Ca0.3Ba2Cu3O6.87,86
Y1Ba1.8La0.2Cu3O7.03,86
Bi2Sr1.6Ca1.2Lu0.2Cu2O8.26,86
Y0.9Ca0.1Ba2Cu3O6.9,86
Y1Ba1.9La0.1Cu3O7,86
Y1Ba2Cu3O6.9,86
Bi2Ca1Sr2Cu2O8,86
Y1Ba2Cu3O6.96,86
Y1Ba1.6Sr0.4Cu3O6.8,86
Sm1.05Ba1.95Cu3O6.99,86
Y1Ba2Cu2.97Ni0.03O6.94,86
Hg1Ba2Cu1O4.066,86
Yb0.9Pr0.1Ba2Cu3O6.97,86
Y1Ba2Cu3O6.95,86
Y1Ba2Cu3O6.965,86
Y0.88Ca0.12Ba2Cu4O8,86
Yb1Ba2Cu3O6.95,86
Bi2Sr1.6Ca1.2Yb0.2Cu2O8.26,86
Y1Ba2Cu3O6.8,86
Y0.75Ca0.25Ba2Cu2.75Al0.25O6.86,86
Y0.95Ca0.05Ba2Cu3O6.94,86
Sm1Ba2Cu3O7,86
Sm1Ba2Cu3O6.927,86
Y0.9Pr0.1Ba2Cu3O6.95,86
Y0.9Pr0.1Ba2Cu3O6.97,86
Y1Ba2Cu3O6.78,86
Y1La0.2Ba1.8Cu3O7.64,86
Y1Ba2Cu2.95Al0.05O7,86
Nd1Ba2Cu3O7,86
Bi2Sr2Ca1Cu2O8.19,86
Eu1Ba2Cu3O6.9,86
Y2Ba4Cu7O14.98,86
Tl1.75Cd0.25Ba2Cu1O6,86
Bi2Sr1.6Ca1.2Dy0.2Cu2O8.26,86
Pr1Tl2Sr2Ca4Cu5O2,86
Yb0.9Pr0.1Ba2Cu3O6.92,86
Er1Ba2Cu3O6.935,86
Tl2Ba2Cu1O6,86
Y0.95Ca0.05Ba2Cu3O6.79,86
Bi2Sr2Ca1Cu2O8.24,86
Tm2Ba4Cu7O14.732,86
Y0.95Ca0.05Ba2Cu2.95Co0.05O6.96,86
Y0.9Ca0.1Ba2Cu2.9Co0.1O6.95,86
Bi2Sr2Ca1Cu2O8,85.9
Bi2Sr2Ca1Cu2O8.24,85.9
Tl1Sr1.5Pr0.5Ca1Cu2O7,85.9
Tl1Sr1.5Nd0.5Ca1Cu2O7,85.8
Tl1Sr1.5Eu0.5Ca1Cu2O7,85.8
Y1Ba2Cu3H0.08O7,85.7
Y1Ba2Cu2.95Ga0.05O6.69,85.6
Y1Ba2Cu3O6.828,85.5
Dy1Ba2Cu2.98Fe0.02O6.88,85.5
Hg1Ba2Cu1O4.16,85.5
Hg1Ba2Cu1O4.28,85.5
Yb1Ba2Cu3O6.97,85.4
Y1Ba2Cu3O6.9,85.4
Hg1Ba2Cu1F1O4,85.4
Y0.95Pr0.05Ba2Cu3O6.965,85.4
Y1Ba2Cu3O6.95,85.4
Y1Ba2Cu2.991Zn0.009O6.95,85.23
Er1Ba2Cu2.97Fe0.03O6.94,85.2
Y1Re0.05Ba2Cu2.95O6.94,85.2
Bi2Sr2Ca0.75Pr0.25Cu2O8,85.1
Y1Ba2Cu2.993Zn0.007O6.92,85.1
Sr1.68Ba0.32Cu1O3.4,85.1
Y1Ba2Cu2.94Ga0.06O7,85
Bi2Sr2Ca0.8La0.2Cu2O8.26,85
Tm0.9Pr0.1Ba2Cu3O6.95,85
Y1La0.2Ba1.8Cu3O7.62,85
Y1Ba2Cu3O6.85,85
Yb1Ba2Cu3O7,85
Sm1Ba2Cu3O6.773,85
Tl2Ba2Cu1O6.12,85
Bi2Sr1.8Ca1La0.2Cu2O8.27,85
Bi2Sr2Ca0.8Y0.2Cu2O8.2,85
Y1Ba2Cu3O6.99,85
Y0.85Ca0.15Ba2Cu4O8,85
Bi2Sr1.8Ca1Nd0.2Cu2O8.26,85
Y1Ba2Cu2.82Fe0.18O6.895,85
Y1Ba2Cu3O6.82,85
Y1Ba1.5Sr0.5Cu3O6.938,85
Nd1.1Ba1.9Cu3O6.96,85
Hg0.76Tl0.76Ba1Cu1O4.5,85
Y1Ba2Cu2.94Fe0.06O6.89,85
Y1Ba2Cu2.8Cr0.2O7,85
Bi2Sr2Ca1Cu2O8.293,85
Y0.95Pr0.05Ba2Cu3O6.96,85
Y1Ba2Cu2.98Ni0.02O6.95,85
Y1Ba2Cu3O6.858,85
Y1Ba2Cu3O6.81,85
Y0.95Ca0.05Ba2Cu4O8,85
Hg0.9Re0.1Ba2Cu1O4.33,85
Tm1Ba2Cu3O6.86,85
Y0.981Ba1.994Ca0.025Cu4O8,85
Bi2Sr1.6Ca1.2Gd0.2Cu2O8.26,85
Bi2Sr1.6Ca1.2Eu0.2Cu2O8.26,85
Dy1Ba1.97Cu3.06O7,85
Bi2Sr2Ca1Cu2O8.19,85
Yb1Ba2Cu3O6.71,85
Bi2Sr2Ca1Cu2O1,85
Sm1Ba2Cu3O6.9,85
Tl2Ba2Ca1Cu2O8,85
Tl2Ba2Cu1O5.876,85
Ho0.9Ca0.1Ba2Cu4O8,85
Ho0.85Ca0.15Ba2Cu4O8,85
Ho0.8Ca0.2Ba2Cu4O8,85
Ho0.7Ca0.3Ba2Cu4O8,85
Y1Ba2Cu2.94Al0.06O7,85
Bi1.8Pb0.2Sr2Ca0.8Nd0.2Cu2O8.21,85
Bi1.6Pb0.4Sr1.8Ca1Nd0.2Cu2O8.11,85
Bi1.6Pb0.4Sr2Ca0.8Nd0.2Cu2O8.16,84.8
Bi2Sr2Ca1Cu2O8.15,84.8
Y2Ba4Cu7O15.03,84.8
Bi2Sr2Ca1Cu2O8,84.8
Yb0.9Ca0.1Ba1.8Sr0.2Cu4O8,84.7
Y0.3Cd0.7Ba2Cu3O7,84.7
Sm1Ba2Cu3O7.01,84.7
Bi2Sr2Ca1Cu2O8,84.6
Y0.88Ca0.12Ba2Cu2.88Co0.12O6.78,84.6
Y0.95Ca0.05Ba2Cu4O8,84.5
Hg1Ba2Cu1O4.043,84.5
Y0.98Ca0.02Ba2Cu4O8,84.5
Bi2Sr2Ca1Cu2O8.15,84.5
Y0.9Ca0.1Ba1.8La0.2Cu3O6.97,84.5
Y0.8Pr0.05Ca0.15Ba2Cu3O6.83,84.5
Tl1Sr2Ca0.7Y0.3Cu2O6.84,84.5
Tl1Sr2Ca0.6Y0.4Cu2O6.86,84.5
Tl1Sr2Ca0.1Y0.9Cu2O6.97,84.5
Hg1Ba2Cu1O4.28,84.4
Y1Ba2Cu2.9Fe0.1O7.293,84.4
Lu1Ba2Cu3O7,84.3
Lu1Ba2Cu3O7,84.2
Y1Ba1.9La0.1Cu3O6.92,84.2
Bi2Sr2Ca1Cu2O8.27,84.2
Bi2Sr2Ca0.9Er0.1Cu2O8,84.11
Bi2Sr2Ca0.9Er0.1Cu2O8,84.1
Bi2Sr2Ca1Cu2O8,84.1
Ba2Ca1Cu2F1.8O4.2,84.1
Y0.8Sc0.2Ba2Cu4O8,84.1
Y1Ba2Cu3O6.791,84.1
Gd0.95Hf0.05Ba2Cu3O6.91,84
Lu0.8Pr0.2Ba2Cu3O7,84
Gd1Ba1.95Pr0.05Cu3O7.03,84
Y1Ba2Cu3O6.82,84
Y0.97Ca0.03Ba2Cu3O6.97,84
Hg1Ba2Cu1O4.27,84
Y1Ba2Cu3O7,84
Bi2Sr2Ca1Cu2I0.03O8.21,84
Y1Cu2.99Zn0.01O7,84
Bi4Ca3Sr3Cu4O16,84
Bi2Sr2Ca1Cu2O8.11,84
Y1Ba2Cu3H0.6O6.91,84
Yb0.85Pr0.15Ba2Cu3O6.97,84
Y1Ba2Cu2.99Zn0.01O7,84
Tl2Ba2Cu1O6,84
Y1Ba2Cu2.94Ni0.06O6.9,84
Dy1Ba1.5Sr0.5Cu3O6.9,84
Y0.925Ca0.075Ba2Cu3O6.93,84
Gd0.7Ca0.15Mo0.15Ba2Cu3O6.716,84
Y1Ba1.5Sr0.5Cu3O6.9,84
Y1Ba1.5Sr0.5Cu3O6.91,84
Gd0.65Ca0.2Hf0.15Ba2Cu3O6.96,84
Y1Ba2Cu2.92Fe0.08O7,84
Y1Ba2Cu3O6.77,84
Y1Ba2Cu2.955Ni0.045O6.95,84
Bi4Sr3Ca1.5Y1.5Cu4O16,84
Tl1Ba2Ca0.9Y0.1Cu2O7,84
Nd0.95Ca0.025Pr0.025Ba2Cu3O6.95,84
Y1Ba1.99Cu2.847Ag0.153O6.7,84
Bi2Sr2Ca0.7Y0.3Cu2O8.3,83.9
Y1Ba1.4Sr0.6Cu3O6.8,83.9
Y1Ba1.2Sr0.8Cu3O6.8,83.9
Y1Ba2Cu4O7.96,83.8
Y1Ba2Cu3O7,83.8
Y1Ba2Cu2.94Al0.06O6,83.8
Y0.9Pr0.1Ba2Cu3O6.95,83.79
Bi2Sr1.6Ca1.2Nd0.2Cu2O8.26,83.71
Bi2Sr1.6Ca1.2La0.2Cu2O8.27,83.7
Bi1.8Pb0.2Sr1.8Ca1Nd0.2Cu2O8.2,83.7
Bi2Sr1.6Li0.4Ca1Cu2O7.87,83.65
Bi2Sr2Ca0.8Y0.2Cu2O8.34,83.6
Tl0.76Ba1Cu1O4.5,83.6
Yb0.9Ca0.1Ba1.6Sr0.4Cu4O8,83.6
Yb1Ca0.2Ba1.6Sr0.4Cu4O8,83.5
Y1Ba2.01Cu3.11O7,83.5
Y0.76Ca0.24Ba2Cu2.85Co0.15O6.8,83.5
Y0.85Ca0.15Ba2Cu2.85Co0.15O6.83,83.5
Y0.8Ca0.2Ba2Cu2.85Co0.15O6.84,83.5
Gd1Ba1Sr1Cu3O6.94,83.5
Tl2Ba2Cu1O6,83.4
Er0.95Ca0.05Ba2Cu3O6.935,83.3
Y0.9Ca0.1Ba1.9La0.1Cu3O6.95,83.3
Er0.95Hf0.05Ba2Cu3O6.938,83.3
Sr2Nd0.2Ca0.8Cu2F1O5,83.3
Bi2Sr2Ca1Cu2O8.23,83.3
Bi2Sr2Ca1Cu2O8.26,83.3
Y1Ba2Cu3Li0.3O7,83.2
Bi2Sr2Ca1Cu2O8.248,83.2
Tl2Ba2Cu1O6,83.2
Y0.85Ca0.15Ba2Cu2.85Co0.15O6.97,83.2
Tl1Sr2Ca2Cu3O9.4,83.2
Y1Ba1.5Sr0.5Cu3O6.98,83.15
Y1Ba1Sr1Cu2.9Mo0.1O7.16,83.1
Tl1Sr1.5Sm0.5Ca1Cu2O7,83.1
Bi2Sr2Ca0.7Y0.3Cu2O8.3,83
Y1Ba2Cu3H0.21O7,83
Er1Ba2Cu2.9Ga0.1O6.78,83
Y1Ba2Cu3O6.95,83
Tl1Bi1Sr2Ca1Cu2O7,83
Bi2Sr2Ca1Cu2O8.16,83
Lu1Ba2Cu3O7,83
Y1Ba1.95La0.05Cu3O6.89,83
Y1Ba2Cu2.98Ni0.02O6.94,83
Dy1Ba2Cu3O6.879,83
Bi2Sr2Ca0.9Pr0.1Cu2O8,83
Y0.5La0.5Ba2Cu3O7.01,83
Y1Ba2Cu2.985Zn0.015O6.95,83
Nd1Ba1.6Sr0.4Cu3O6.94,83
Tl0.7K0.3Sr2Ca0.8Cr0.2Cu2O7,83
Y1Ba2Cu2.94Ni0.06O7,83
Y0.9Pr0.1Ba2Cu3O6.98,83
Y1Ba1.5Sr0.5Cu3O6.95,83
Bi4Sr3Ca1.4Y1.6Cu4O16,83
Sr2Nd0.1Ca0.9Cu2F1O5,83
Y1Ba2Cu3H0.69O6.91,83
Y0.8Ca0.2Ba2Cu4O8,83
Y0.9Ca0.1Ba1.6Sr0.4Cu4O7.8,83
Y1Ba1.25Sr0.75Cu3O6.928,83
Y0.95Pr0.05Ba2Cu3O6.85,83
Bi2Sr2Ca1Cu2O8.17,83
Y1Ba2Cu3O6.78,83
Y1Ba2Cu3O6.7,83
Y1Ba1.9Ca0.1Cu4O8,83
Y0.9Ca0.1Ba2Cu3O6.87,83
Y0.95Ca0.05Ba2Cu4O8,83
Y1Ba2Cu3O6.76,83
Dy1Ba1.4Sr0.6Cu3O6.91,83
Bi2Sr2Ca1Cu2O8.2,82.9
Nd0.97Pr0.03Ba2Cu3O7,82.9
Bi2Sr2Ca1Cu2O8,82.9
Yb1Ba2Cu2.982Zn0.018O6.9,82.9
Y1Ba2Cu2.8Al0.2O6.91,82.9
Eu1Ba2Cu3S1O6,82.8
Y1Ba2Cu2.94Ni0.06O7.01,82.7
Y1Ba2Cu3O6.96,82.7
Er1Ba2Cu3O6.67,82.6
Y1Ba2Cu2.9Al0.1O7.1,82.6
Y1Ba1.9Ca0.1Cu3O6.84,82.6
Y1Ba2Cu3O6.72,82.5
Y1Ba2Cu3O7,82.5
Tl0.5Pb0.5Sr2Ca1Cu2O7,82.5
Y1Ba2Cu2.94Ni0.06O6.97,82.5
Tl2Ba2Cu1O6,82.5
Bi1Pb1Sr2Y0.5Ca0.5Cu2O8,82.5
Bi2Sr2Ca1Cu2O8.196,82.5
Y1Ba2Cu2.94Fe0.06O6.85,82.5
Bi1.6Pb0.4Sr2Ca0.6Nd0.4Cu2O8.26,82.5
Tl2Ba2Cu1O6,82.4
Bi8Sr6Ca6Cu9O33.912,82.4
Yb0.9Ca0.1Ba1.4Sr0.6Cu4O8,82.4
Yb1Ca0.4Ba1.6Sr0.4Cu4O8,82.4
Bi1Sr1Ca1Cu1O1,82.2
Bi2Sr2Ca1Cu2O8,82.2
Y1Ba2Cu3O7,82.2
Y0.76Ca0.24Ba2Cu2.76Co0.24O6.84,82
Lu0.9Pr0.1Ba2Cu3O2,82
Hg0.8Bi0.2Ba2Cu1O4.2,82
Bi2Sr2Ca1Cu2O8.16,82
Tl1Sr2Ca0.8Y0.2Cu2O6.82,82
Hg1Ba2Cu1O4.08,82
B1Sr2Ca4Cu5O13,82
Y1Ba2Cu3O6.82,82
Y1Ba1Sr1Cu2.95Mo0.05O7.07,82
Bi2Sr2Ca0.9Y0.1Cu2O8.23,82
Y1Ba2Cu2.94Fe0.06O6.929,82
Y1Ba2Cu2.84Fe0.16O7.303,82
Y1Ba2Cu2.98Zn0.02O7,82
Lu1Ba2Cu3O7,82
Y0.9Pr0.1Ba2Cu3O6.965,82
Y1Ba2Cu2.95Ni0.05O6.94,82
Y0.6La0.4Ba2Cu3O6.92,82
Y0.4La0.6Ba2Cu3O6.99,82
Gd1.05Ba1.95Cu3O6.94,82
Tl0.5Pb0.5Sr2Ca1Cu2O7,82
Y1Ba2Cu3O6.937,82
Y1Ba2Cu3O6.838,82
Tm0.95Ca0.05Ba2Cu4O8,82
Y0.8Ca0.2Ba2Cu3O6.5,82
Dy1Ba1.2Sr0.8Cu3O6.9,82
Er0.6Ca0.25Hf0.15Ba2Cu3O7.02,82
Bi2.2Sr1.72La0.08Ca1Cu2O8,82
Y0.85Ca0.05Pr0.1Ba2Cu3O6.95,82
Hg1.4Tl0.6Ba2Y0.6Ca0.4Cu2O7.78,82
Bi4Ca3Sr3Cu4O16,82
Tl1Ba2Ca0.7Gd0.3Cu2O7,82
Tl0.5Pb0.5Ca1Sr2Cu2O7,82
Y1Ba2Cu1O8,82
Er0.82Ca0.18Ba2Cu2.82Co0.18O6.71,82
Y1Cu2.98Zn0.02O7,82
Y1Ba1.3Sr0.7Cu3O6.98,82
Nd0.9Ca0.1Ba2Cu3O6.63,82
Eu1Ba2Cu3O7,82
Y1Ba2Cu3O6.85,82
Bi4Sr4Ca1.5Tm0.5Cu4O16.5,82
Dy1Ba1.8Sr0.2Cu3O6.89,82
Y0.9Ca0.1Ba2Cu3O6.91,82
Gd0.9Hf0.1Ba2Cu3O6.88,82
Y0.8Ca0.2Ba2Cu3O6.78,82
Bi1.7Pb0.3Sr2Ca0.92Nd0.08Cu2O8.16,82
Y0.9Pr0.1Ba2Cu3O7,82
Y0.9Ca0.1Ba2Cu3O6.8,82
Y0.8Ca0.2Ba2Cu3O6.8,82
Gd0.65Ca0.2Mo0.15Ba2Cu3O6.818,82
Bi2Sr1.3Ca0.7Cu1O6.15,82
Y0.95Ca0.05Ba2Cu4O8,82
Yb0.9Ca0.1Ba1.2Sr0.8Cu4O8,82
Y1Ba2Cu3O6.8,82
Bi1Sr1Ca1Cu1O1,82
Y0.9Ca0.1Ba2Cu2.85Co0.15O6.91,82
Y0.7Ca0.3Ba2Cu2.7Co0.3O6.93,82
Gd0.922Pr0.078Ba2Cu3O7,82
Gd1Ba2Cu3H0.12O6.89,82
Y0.8Ca0.2Ba1.8La0.2Cu3O6.94,81.9
Er0.76Ca0.24Ba2Cu2.76Co0.24O6.92,81.9
Bi2Sr2Ca1Cu2O8,81.8
Bi2Sr2Ca1Cu2O8.27,81.8
Bi1.6Pb0.4Sr2Cu3Ca2O10.11,81.8
Eu1Ba1Sr1Cu3O6.95,81.8
Bi2Sr2Ca1Cu2O8.234,81.8
Nd0.6Ca0.4Ba0.6La0.4Cu3O6.83,81.8
Cu3P0.5Sr2Ca1.9Y0.1O9.3,81.8
Cu3P0.5Sr2Ca1.9Y0.1O9.4,81.8
Tl1Sr1.5Tm0.5Ca1Cu2O7,81.8
Tl1Sr1.5Yb0.5Ca1Cu2O7,81.7
Y1Ba2Cu2.993Zn0.007O7,81.7
Hg1.4Tl0.6Ba2Y0.5Ca0.5Cu2O7.74,81.6
Sm1Ba2Cu2.98Fe0.02O6.76,81.6
Y1Ba2Cu3O6.86,81.6
Bi2Sr2Ca1Cu2O8.27,81.6
Bi2Sr2Ca1Cu2O8,81.5
Y0.8La0.2Ba2Cu3O6.9,81.5
Tl0.7Rb0.3Sr2Ca0.8Cr0.2Cu2O7,81.5
Bi4Sr4Ca1.9Tm0.1Cu4O16.28,81.5
Bi4Sr4Ca1.8Tm0.2Cu4O16.38,81.5
Bi2Sr2Ca1Cu2I0.1O8.21,81.5
Y0.85Pr0.05Ca0.1Ba2Cu4O8,81.4
Gd0.7Ca0.15Hf0.15Ba2Cu3O6.93,81.4
Y0.925Ca0.075Ba2Cu4O8,81.4
Y1Ba2Cu3Li0.5O7,81.4
Y1Ba2Cu2.91Ga0.09O7,81.4
Bi2Sr2Ca1Cu2O8.231,81.4
Gd0.6Ca0.25Mo0.15Ba2Cu3O6.761,81.3
Y1Ba2Cu3O6.75,81.3
Sm1Ba2Cu3O6.813,81.3
Y1Ba1Sr1Cu3O6.98,81.27
Tm1Ba2Cu3O6.87,81.2
Y1Ba1Sr1Cu3O6.8,81.2
Y1Ba2Cu2.94Ni0.06O7,81.1
Y0.9Ca0.1Ba2Cu4O8,81
Y0.93Ca0.07Ba2Cu4O8,81
Y1Ba2Cu2.94Ni0.06O6.94,81
Nd1Ba1.9La0.1O6.86,81
Y1Ba1Sr1Cu3O6.96,81
Y1Ba2Cu2.97Zn0.03O7,81
Y0.94Ca0.06Ba2Cu3O6.97,81
Y1Ba2Cu2.095Al0.095O6.81,81
Y1Ba1.926Ca0.074Cu4O8,81
Y1Ba1Sr1Cu3O6.947,81
Tm0.93Ca0.07Ba2Cu4O8,81
Y0.9Ca0.1Ba2Cu3O6.93,81
Y1Ba2Cu3O6.98,81
Eu1Ba1.93Cu2.92O7,81
Y1Ba2Cu2.985Zn0.015O7,81
Er0.95Ca0.05Ba2Cu4O8,81
Y1Ba2Cu3O6.85,81
Y1Ba2Cu3O6.8,81
Bi2Sr2Ca0.95Pr0.05Cu2O8,81
Bi2.2Sr1.72La0.08Ca1Cu2O8,81
Y1Ba2Cu3O6.7,81
Y1Ba2Cu2.9Ni0.1O7,81
Bi4Sr3Ca2.8Tm0.2Cu4O16.41,81
Bi2Sr1.5Ca1.5Cu2O8.19,81
Y1Ba2Cu3O7,81
Y0.83Ca0.02Pr0.15Ba2Cu3O6.95,81
Bi1Pb1Sr2Y0.6Ca0.4Cu2O8,81
Bi4Sr3Ca3Cu4O16.25,81
Dy1Ba1Sr1Cu3O6.93,81
Y0.95Ca0.05Ba2Cu2.85Co0.15O6.82,81
Dy1Ba1Sr1Cu3O6.94,81
Sm1.15Ba1.85Cu3O7,81
Y0.6Ca0.4Ba1.4La0.6Cu3O7.07,81
Nd1Ba1.5Sr0.5Cu3O6.91,81
Y0.85Ca0.15Ba2Cu3O6.65,81
Sr2Ca1Cu2.8O7.5,81
Y0.899Ca0.101Ba2Cu3O6.943,81
Y0.9Pr0.1Ba2Cu3O6.96,81
Dy1Ba2Cu2.95Ga0.05O6.69,81
Sm1Ba2Cu2.96Ni0.04O6.88,81
Dy1Ba2Cu2.98Ni0.02O6.72,80.9
Hg1Ba2Cu1O4.19,80.9
Gd1Ba1Sr1Cu3O6.93,80.89
Er1Ba2Cu2.91Fe0.09O6.96,80.8
Eu0.9Pr0.1Ba2Cu3O6.78,80.8
Hg1Ba2Cu0.97Zn0.03O4.081,80.8
Bi2.1Sr1.8Ca1Cu1.982Zn0.018O8,80.8
Y0.7La0.3Ba2Cu3O6.92,80.7
Y1Ba2Cu2.978Zn0.022O6.93,80.7
Er0.85Pr0.15Ba2Cu3O7,80.6
Y0.8Ca0.2Ba2Cu3O6.9,80.6
Er0.9Hf0.1Ba2Cu3O6.862,80.6
Y0.75Ca0.25Ba2Cu4O8,80.6
Y1Ba2Cu2.975Zn0.025O6.93,80.5
Y0.8Ca0.05Pr0.15Ba2Cu3O6.95,80.5
Gd0.75Ca0.1Hf0.15Ba2Cu3O6.89,80.5
Y1Ba2Cu3O6.78,80.5
Y0.9Ca0.1Ba2Cu3O6.72,80.5
Y1Ba2Cu3O6.74,80.5
Nd1Ba2Cu3O7.04,80.5
Er0.9Ca0.1Ba2Cu3O6.93,80.5
Bi1.7Pb0.3Sr2Ca0.99Nd0.01Cu2O8.03,80.5
Y1Ba2Cu3O6.795,80.5
Y0.8Ca0.2Ba2Cu2.8Co0.2O6.98,80.5
Y0.75Ca0.25Ba2Cu2.75Co0.25O7,80.5
Bi2Sr2Ca1Cu2O8,80.5
Y0.5Ca0.5Ba1.5La0.5Cu3O6.96,80.5
Bi2.2Sr1.72La0.08Ca1Cu2O8,80.4
Bi2Sr2Ca1Cu2O8,80.4
Bi4Sr4Ca2Cu4O16.25,80.4
Yb0.7Ca0.3Ba1.6Sr0.4Cu3O6.56,80.4
Gd0.95Mo0.05Ba2Cu3O6.948,80.3
Bi2Sr2Ca1Cu2O8,80.2
Y0.6Ca0.4Ba1.5La0.5Cu3O7.01,80.2
Y0.75Ca0.25Ba2Cu2.75Co0.25O6.98,80.2
Eu1Ba2Cu3O7,80.2
Y0.95Ca0.05Ba2Cu4O8,80.1
Y0.8Ca0.2Ba2Cu2.75Co0.25O7.01,80.1
Y1Ba2Cu2.97Fe0.03O7,80.05
Y1Ba2Cu2.89Al0.11O7,80
Y1Ba2Cu3O6.9,80
Tl2Ba2Cu1O5.912,80
Y0.95Ca0.05Ba1.6Sr0.4Cu4O7.8,80
Y1Ba0.8Sr1.2Cu3O6.8,80
Y1Ba2Cu3O6.76,80
Y2Ba4Cu7O14.92,80
Y0.76Ca0.24Ba2Cu2.94Co0.06O6.81,80
Y0.64Ca0.36Ba2Cu2.64Co0.36O6.87,80
Y0.975Ca0.025Ba2Cu4O8,80
Tl0.5Pb0.5Sr2Ca1Cu2O7,80
Yb1Ba1.8Sr0.2Cu4O8,80
Hg1Ba2Cu1O4.117,80
Y0.95Ca0.05Ba2Cu2.95Ni0.05O6.83,80
Gd1Ba1Sr1Cu3O7,80
Y1Ba2Cu2.97Ti0.03O6.92,80
Gd1Ba2Cu3H0.43O6.89,80
Y1Ba1.8La0.2Cu3O6.96,80
Y0.9Ca0.1Ba1.7La0.3Cu3O7.04,80
Y0.7Ca0.3Ba1.7La0.3Cu3O6.92,80
Y0.7Ca0.3Ba1.4La0.6Cu3O7.12,80
Y0.6Ca0.4Ba1.6La0.4Cu3O6.95,80
Y0.6Ca0.4Ba1.3La0.7Cu3O7.12,80
Y0.5Ca0.5Ba1.5La0.5Cu3O6.94,80
Y0.5Ca0.5Ba1.2La0.8Cu3O7.12,80
Y0.4Cu3Ba1.3La0.7O7,80
Y0.4Ca0.6Ba1.2La0.8Cu3O7.07,80
Y0.4Ca0.6Ba1.1La0.9Cu3O7.12,80
La1Ba1.87Ca0.13Cu3O6.923,80
Nd1Ba1.8Sr0.2Cu3O6.927,80
Nd0.9Ba1.7Sr0.4Cu3O6.666,80
Y0.9Pr0.1Ba2Cu3O6.82,80
Y0.9Ca0.1Ba2Cu3O6.67,80
Bi2Sr2Ca1Cu2O8.22,80
Ba1.6Sr0.4Yb1Cu3O6.96,80
Y1Ca1Ba4Cu5N0.3C0.7O14,80
Y1Ba2Cu3O6.88,80
Cu3P0.5Sr2Ca2O9.25,80
Y0.7Ca0.3Ba2Cu2.7Co0.3O7.02,80
Sr0.6Ca0.333Cu1O2.15,80
Tl1Sr1.5Lu0.5Ca1Cu2O7,80
Y1Ba2Cu4O7.95,80
Y1Ba1.8Sr0.2Cu4O7.95,80
Y1Ba1.6Sr0.4Cu4O7.95,80
Y1Ba1.4Sr0.6Cu4O7.95,80
Er1Ba2Cu2.85Ga0.15O6.69,80
Y1Ba2Cu3O6.78,80
Y0.9Ca0.1Ba1.9La0.1Cu3O6.96,80
Y1Ba2Cu2.68Fe0.32O7.343,80
Y1Ba2Cu2.6Fe0.4O7.401,80
Dy1Ba2Cu2.96Fe0.04O6.89,80
Dy1Ba2Cu2.96Ni0.04O6.73,80
Yb0.8Pr0.2Ba2Cu3O6.97,80
Y1Ba1Sr1Cu3O6.98,80
Gd1Ba1.5Sr0.5Cu3O6.93,80
Bi1.6Sr0.4Yb1Cu3O6.999,80
Y1Ba2Cu2.97Zn0.03O6.93,80
Hg1Ba2Cu1O4.052,80
Hg1Ba2Cu0.97Zn0.03O4.073,80
Y0.3La0.7Ba2Cu3O6.98,80
Y0.8Ca0.2Ba2Cu3O6.84,80
Ba2Ca1Cu2F2O4,80
Y0.97Ca0.03Ba2Cu4O8,80
Y1Ba2Cu3O6.8,80
Y0.9Ca0.1Ba2Cu3O7,80
Y1Ba1.9La0.1Cu3O6.9,80
Y1Ba1.8La0.2Cu3O7,80
Y0.85Pr0.15Ba2Cu3O6.97,80
Y0.9Ca0.1Ba2Cu3O6.98,80
Gd0.85Hf0.15Ba2Cu3O6.84,80
Y0.77Ca0.08Pr0.15Ba2Cu3O6.95,80
Y0.85Pr0.15Ba2Cu3O6.95,80
Tl1Ba2Ca1Cu2O7,80
Y1Ba2Cu2.9Ni0.1O7,80
Ge0.5Cu3Sr2Ca1.9Y0.1O9.3,80
Y1Cu2.97Zn0.03O7,80
Y0.9Ca0.1Ba2Cu3O6.96,80
Bi2Sr2Ca0.7Y0.3Cu2O8,80
Y0.8Ca0.1Pr0.1Ba2Cu3O6.95,80
Y1Ba2Cu4O8.045,80
Nd0.9Ca0.05Pr0.05Ba2Cu3O6.95,80
Y1Ba1.6Sr0.4Cu4O8,80
Gd0.6Ca0.25Hf0.15Ba2Cu3O7,80
Bi2Sr2Ca1Cu2O8.12,80
Bi1.7Pb0.3Sr2Ca0.94Nd0.06Cu2O8.1,79.9
Tm0.97Ca0.03Ba2Cu4O8,79.9
Y1Ba1.4Sr0.6Cu4O8,79.9
Bi2Sr1.4Ca1.6Cu2O8.2,79.9
Y0.9Ba0.1Cu1O4,79.9
Y1Ba2Cu2.902Pt0.098O6.4,79.89
Y0.9Pr0.1Ba2Cu3O6.91,79.8
Ho0.95Ca0.05Ba2Cu4O8,79.8
Bi4Sr4Ca3Cu4O16.29,79.8
Bi4Sr3Ca2.5Tm0.5Cu4O16.52,79.8
Tl1Sr1.3Nd0.7Ca1Cu2O7,79.8
Y1Ba2Cu2.97Zn0.03O6.9,79.7
Tl2Ba2Cu1O6.01,79.7
Gd1Ba2Cu3O6.8,79.7
Bi2Sr2Ca1Cu2O8,79.7
Zn1Tl0.78Ba1Cu1O4.5,79.6
Eu1.1Ba1.9Cu3O7.07,79.6
Y0.4Cu3Ba1.4La0.6O6.95,79.6
Y0.8Ca0.2Ba2Cu3O6.64,79.5
Y1Ba1Sr1Cu3O6.91,79.5
Ge0.4Cu3Sr2Ca1.8Y0.2O9.3,79.5
Er0.76Ca0.24Ba1.8Sr0.2Cu2.76Co0.24O6.91,79.5
Bi2Sr2Ca1Cu2O8.28,79.5
Ba1.6Sr0.4Yb1Cu3O6.8,79.5
Cu2.5Sr2Ca1Cr0.5O7.5,79.5
Eu1Ba1Sr0.9Ca0.1Cu3O6.95,79.5
Bi1.8Pb0.2Sr2Ca1Cu2O8,79.5
Y1Ba2Cu4O8,79.5
Bi2Sr2Ca1Cu2O8.28,79.45
Y1Ba2Cu2.88Co0.12O7,79.4
Y1Ba2Cu2.9Ga0.1O6.8,79.4
Y1Ba2Cu2.97Zn0.03O6.95,79.4
Hg1Ba2Cu1O4.3,79.4
Yb1Ba1.7Sr0.3Cu3O6.9,79.3
Yb0.95Pr0.05Ba1.7Sr0.3Cu3O6.91,79.3
Yb0.9Pr0.1Ba1.7Sr0.3Cu3O6.9,79.3
Dy1Ba2Cu2.94Ni0.06O6.72,79.3
Sm1Ba2Cu2.98Zn0.02O6.82,79.24
Dy1Ba2Cu2.98Zn0.02O6.87,79.2
Pr1Ba2Cu3O6.8,79.2
Bi2Sr2Ca1Cu2O8.14,79.2
Y1Ba2Cu2.97Zn0.03O6.95,79.2
Y1Ba2Cu2.9Ni0.1O6.92,79.2
Er1Ba2Cu2.97Zn0.03O6.93,79.2
Y1Ba1.36Sr0.64Cu4O8,79.1
Bi1.7Pb0.3Sr2Ca1Cu2O8,79
Y0.2La0.8Ba2Cu3O7,79
Y0.9Sc0.1Ba2Cu4O8,79
Ba2Ca2Cu3F1.8O6.2,79
Er0.65Ca0.2Hf0.15Ba2Cu3O6.83,79
Y0.8Ca0.2Ba2Cu3O6.53,79
Bi1.7Pb0.3Sr2Ca0.98Nd0.02Cu2O8.05,79
Y1Ba2Cu3H0.92O6.91,79
Y0.9Ca0.1Ba2Cu4O8,79
Y1Ba1Sr1Cu3O6.93,79
Y1Ba1.65Sr0.35Cu4O8,79
Y1Ba2Cu3O6.72,79
Gd0.55Ca0.3Mo0.15Ba2Cu3O6.626,79
Dy1Ba1.6Sr0.4Cu3O6.89,79
Y0.85Ca0.15Ba2Cu3O6.58,79
Gd0.8Ca0.05Hf0.15Ba2Cu3O6.86,79
Y0.85Ca0.15Ba2Cu2.75Co0.25O7.01,79
Y1Ba1.8La0.2Cu3O7.013,79
Y1Ba2Cu3O6.6,79
Y1Ba2Cu2.9Fe0.1O7,79
Y1Ba2Cu3O6.861,79
Y1Ba2Cu3O6.894,79
Bi1.7Pb0.3Sr2Ca1Cu2O8.05,79
Nd0.5Ca0.5Ba0.6La0.4Cu3O6.77,79
Y1Ba0.74Sr1.26Cu3O6.98,79
Y1Ba1.4Sr0.6Cu4O8,79
Y1Ba1.6Sr0.4Cu4O8,79
Y1Ba1.7La0.3Cu3O7.1,79
La3Ca1Ba3Cu7O16.678,79
Pb2Sr2Ho0.5Ca0.5Cu2.94Pt0.06O8,79
Yb0.7Ca0.3Ba1.6Sr0.4Cu3O6.56,79
Y1Ba1Sr1Cu3O6.899,78.8
Yb1Ba1.6Sr0.4Cu3O6.88,78.8
Y1Ba2Cu2.979Zn0.021O7,78.8
Er1Ba2Cu4O8,78.8
Y1Ba2Cu4O8,78.7
La1.2Ba1.8Cu3O6.98,78.6
Y1Ba2Cu3O6.9,78.6
Bi2Sr2Ca6Cu8O19,78.6
Bi2.15Sr1.68Ca1.17Cu2O8,78.6
Bi4Sr3Ca2.9Tm0.1Cu4O16.36,78.5
Y1Ba2Cu4O7.986,78.5
Nd1.2Ba1.8Cu3O6.96,78.5
Bi2Sr2Ca1Cu2O8,78.5
Y1Ba2Cu4O8.043,78.5
Y1Ba2Cu4O8,78.5
Tl1Ba2Ca1Cu2O7,78.5
Bi2Sr2Ca0.9Gd0.1Cu2O8,78.5
Dy1Ba1Sr1Cu3O6.94,78.5
Bi8Sr6Ca6Cu9O33.964,78.5
Ca1La1Ba1Cu3O7,78.49
Yb1Ba1.8Sr0.2Cu4O8,78.4
Yb1Ba1.6Sr0.4Cu4O8,78.4
Yb1Ba1.4Sr0.6Cu4O8,78.4
Yb1Ba1.2Sr0.8Cu4O8,78.4
Tl0.75Pb0.25Ca1Sr2Cu2O7,78.35
Bi4Ca3Sr3Cu4O16.32,78.3
Sm1Ba1Sr1Cu3O6.94,78.3
Eu1Ba1Sr1Cu3O6.94,78.3
Y1Ba2Cu4O8,78.3
Y0.8Pr0.1Ca0.1Ba2Cu4O8,78.21
Bi2Sr2Ca0.95Ce0.05Cu2O8,78.2
Yb1Ba1.6Sr0.4Cu4O8,78.2
Yb1Ba1.4Sr0.6Cu4O8,78.2
Yb1Ba1.2Sr0.8Cu4O8,78.2
Y1Ba2Cu4O8,78.2
Y1Ba2.2Cu4O8,78.1
Y0.95Ba1.95Ca0.1Cu4O8,78.1
Gd0.95Ba1.95Ca0.1Cu4O8,78.1
Tm1Ba2Cu4O8,78
Tl1Ba1Sr1Ca1Cu2O7,78
Y1Ba2Cu3O6.73,78
Y0.8Ca0.2Ba1.5La0.5Cu3O7.11,78
La1Ba1.75Ca0.25Cu3O6.951,78
La2.57Ca0.86Ba2.57Cu6O14.2,78
Y0.8Pr0.15Ca0.05Ba2Cu3O6.82,78
Y1Ba2Cu1O8,78
Hg1Ba2Cu1O4.055,78
Er0.97Ca0.03Ba2Cu4O8,78
Y1Ba2Cu2.97Zn0.03O6.93,78
Lu0.7Ca0.3Ba2Cu3O6.62,78
La2.5Gd0.5Ca1Ba3Cu7O16.359,78
La2.3Gd0.6Ca1.2Ba2.9Cu7O16.543,78
Ba1.6Sr0.4Yb0.95Ca0.05Cu3O6.8,78
Ba1.6Sr0.4Yb0.95Ca0.05Cu3O6.76,78
Y2Ba4Cu7O15,78
Y0.9Ca0.1Ba2Cu3O6.66,78
La2.5Y0.5Ca1Ba3Cu7O16.552,78
Cu3P0.5Sr2Ca1.8Y0.2O9.55,78
La2.5Y0.5Ca1Ba3Cu7Fe7O16.574,78
Ca0.4La0.65Ba1.35Cu3O7.15,78