formula,Tc
Tl2Ba2Ca1Cu2O8,106.000
Tl2Ba2Ca1Cu1.98Fe0.02O8,106.000
Ba2Ca1Cu2F1.4O4.6,106.000
Bi1.6Pb0.4Sr2Ca2Cu3O10.11,105.300
Bi0.16Pb0.4Sr2Ca2Cu3O10.11,105.300
Tl0.5Pb0.5Sr2Ca0.8Y0.2Cu2O7,105.200
Tl2Ba2Ca2Cu3O10,105.000
Bi1Sr1Ca1Cu1O1,105.000
Sr0.041Ca0.042Cu0.062C0.061B0.054O0.740,105.000
Tl1Ba1Sr1Ca2Cu3O9,105.000
Tl1Ba2Ca1Cu2O8,105.000
Hg1Ba2Ca1Cu2O6.14,105.000
Hg1Ba2Ca2Cu3O8.2,105.000
Tl2Ba2Ca1Cu2O8,105.000
Ba2Ca3Cu4F1.2O8.8,105.000
Tl1Ba2Ca1Cu2O8,104.950
Bi1.4Pb0.6Sr2Ca1.9Ga0.1Cu3O7,104.400
Bi1.6Pb0.4Sr2Ca2Cu3O9.91,104.400
Tl1.8Ba2Ca0.85Cu2.2O8,104.000
Hg0.7Bi0.3Sr2Ca2Cu3O8.65,104.000
Tl2Ba2Ca1Cu2O8,104.000
Hg1Ba2Ca2Cu3O8.2,104.000
Bi1.6Pb0.35V0.05Sr2Ca2Cu3O10.12,103.700
Bi0.16Pb0.35V0.05Sr2Ca2Cu3O10.12,103.700
Bi1Pb1Sr2Ca2Cu3O10,103.500
Hg0.5Pb0.5Ba2Ca2Cu3O8.45,103.000
Cu3.5Sr2Ca2Cr0.5O9.55,103.000
Tl1.6Ba2Ca3.3Cu4O11.89,103.000
Tl2Ba2Ca1Cu2O8,103.000
Tl2Ba2Ca0.9Ce0.1Cu1.98Fe0.02F0.2O7.9,103.000
Tl2Ba2Ca0.8Ce0.2Cu2O8,103.000
Ba2Ca3Cu4F1O9,103.000
Bi1.6Pb0.3Sr2Ca2Cu3V0.1O10.12,102.500
Bi0.16Pb0.3V0.1Sr2Ca2Cu3O10.12,102.500
Bi1.6Pb0.4Sr2Ca2Cu3O10.07,102.300
Tl1Ba2Ca0.65Y0.35Cu2O7,102.000
Tl2Ba2Ca1Cu2O8,102.000
Bi1.6Pb0.4Sr2Cu3Ca2O0.13,102.000
Hg0.8Bi0.2Sr2Ca2Cu3O8.35,102.000
Tl0.5Pb0.5Sr1.84Nd0.16Ca1Cu2O7,102.000
Hg1Ba2Ca1Cu2O6.13,102.000
Ba2Ca3Cu4F1.2O8.8,102.000
Ba2Ca2Cu3F1.6O6.4,102.000
Tl1Sr2Ca0.8Cr0.2Cu2O7,102.000
Hg1Ba2Ca2Cu3O8.16,101.000
Tl2Ba2Ca1Cu1.98Fe0.02F0.3O7.85,101.000
Y3Ba5Cu8O18,100.100
Tl1Ba2Ca0.8Nd0.2Cu2O6.86,100.000
Ga1Sr2Ca3Cu4O10.9,100.000
Cu3S0.5Sr2Ca2O12,100.000
Hg1Ba2Ca1Cu2O6.3,100.000
Tl2Ba2Ca0.9Ce0.1Cu2O8,100.000
Tc0.95V0.05,10.990
Er1Ni2B2C1,10.960
Ca10Pt3.42Fe9.58As18,10.960
La1Bi1S2F0.5O0.5,10.960
Th1Co0.5Ni0.5C2,10.960
C1Nb1,10.950
C0.571N0.271Ta1,10.920
Tm1Ni2B2C1,10.920
Gd0.51Sm1.34Ce0.15Cu1O4,10.900
La1.8Sr0.2Cu0.97Ni0.03O4,10.900
Li2.6Ti2.7O4,10.900
Nb3Pt1,10.900
Mo0.95Hf0.05C0.7,10.900
Cu1.5Mo4.5S6,10.900
Nb0.42Tc0.58,10.900
V2.7Ti0.3Si1,10.900
Nb0.692Sn0.036Al0.156Ge0.116,10.900
Si1V2.7Ti0.3,10.900
Y1Ni1.7Cu0.3B2C1,10.900
Tm1Ni2B2C1,10.900
Nb0.8Zr0.2,10.900
Nb3Rh0.02Au0.98,10.900
Th1.6Lu0.4C3,10.900
Sn1.08Eu0.1Mo6.35S8,10.900
Mo0.8Zr0.2C1,10.900
Sc1Tc2,10.900
B2.6Nb1,10.900
Fe1Se0.082Te0.738,10.900
La1Fe0.9Ir0.1As1O1,10.900
Pr1Fe0.9Co0.1As0.8P0.2O1,10.900
Ca9.75Lu0.25Pt3Fe10As18,10.900
Ba1Fe1.82Ni0.18As2,10.900
La0.99Y0.01Fe0.995Mn0.005As1F0.11O0.89,10.900
Tm1Ni2B2C1,10.880
La1Fe1As0.2P0.8F0.05O0.95,10.870
Nb5Ir3O1,10.840
Bi1.5Pb0.5Sr1.4La0.6Cu1O6.118,10.800
La1.85Sr0.15Cu0.98Ru0.02O4,10.800
La1.85Sr0.15Cu0.97Ru0.03O4,10.800
C1Mo2,10.800
C1.35Nb0.1Y0.9,10.800
Cu1Mo3S4,10.800
Mo0.05Tc0.95,10.800
Nb0.25Sn0.25Ta0.5,10.800
Nb0.85Zr0.15,10.800
V2.928Re0.072Ga1,10.800
Nb3Rh0.1Au0.9,10.800
Nb1Ta2Sn1,10.800
Nb1Sn1Ta2,10.800
Nb0.66Zr0.33,10.800
Nb0.75Zr0.25,10.800
Rh1Zr2,10.800
Cu2Mo6S8,10.800
Er1Ni2B2C1,10.800
Y1Ni1.7Cu0.3B2C1,10.800
Zr2Rh1H0.1,10.800
Au1Nb3,10.800
La1Mo6Se8,10.800
Tm1Ni2B2C1,10.800
Er0.8Lu0.2Ni2B2C1,10.800
V0.75Ge0.175Al0.075,10.800
Nb0.7Zr0.3,10.800
Rh0.1Zr0.9,10.800
Y1.8Nb0.2C2.7,10.800
Y5Os4Si15,10.800
Fe1Se0.8S0.2,10.800
La1Fe1As0.7P0.3O1,10.800
Ca1Fe1.7Co0.3As2,10.800
Li1Fe0.95Co0.05As1,10.800
Hf1Ru1P1,10.800
Na1Fe0.968Cu0.032As1,10.800
Ca1Fe1.96Rh0.04As2,10.800
La0.8Y0.2Fe0.97Mn0.03As1F0.11O0.89,10.800
Mo1S2,10.800
Tm1Ni2B2C1,10.790
Nb0.5Zr0.5,10.750
Nb0.6Zr0.4,10.750
C0.198N0.747Ta1,10.740
La1.892Ba0.108Cu1O4,10.700
Au1Nb3,10.700
P1,10.700
C1.35Ti0.1Y0.9,10.700
N1Zr1,10.700
V3Si0.79Ga0.21,10.700
Cu1.8Mo6S8,10.700
Y2I1.75Cl0.25C2,10.700
Y1Ni1.7Pd0.3B2C1,10.700
Nb0.9Zr0.1,10.700
V3Ga0.9Sn0.1,10.700
Nb0.75Zr0.25,10.700
Y1.8Ti0.2C2.7,10.700
Sn1.2Mo6.35S8,10.700
Sn0.96Eu0.2Mo6.35S8,10.700
Li1Ti2O4,10.700
Fe1Se0.656Te0.164,10.700
Ba1Pb0.35Hg0.4Bi0.25O3,10.700
La1Bi1S2F0.5O0.5,10.700
Fe1Se0.89S0.11,10.700
V2Hf0.84Nb0.16,10.670
Cu1Mo3S4,10.660
La1Pt1.5Au0.5B2C1,10.650
Fe1Se0.89S0.11,10.640
La1.45Nd0.4Sr0.15Cu1O4,10.600
Sm0.7Pr0.3Ba2Cu3O6.65,10.600
C1.35Ge0.1Y0.9,10.600
Mo0.6Re0.4,10.600
V3Si0.1Ga0.9,10.600
Mo0.6Re0.395,10.600
Mo0.5Re0.395,10.600
Y1Ni1.6Cu0.4B2C1,10.600
Er1Ni2B2C1,10.600
Au1Nb3,10.600
Nb0.8Ga0.16Ni0.04,10.600
Nb0.8Ga0.16Cr0.04,10.600
C0.99Nb1,10.600
Y0.65Dy0.35Ni2B2C1,10.600
Pb1Mo6S7.5Se0.5,10.600
Y0.85Gd0.15Ni2B2C1,10.600
V0.7Si0.2Al0.1,10.600
Mo0.35Pt0.075Re0.375,10.600
Nb0.75Zr0.25,10.600
Nb0.65Zr0.35,10.600
Y1.8Ge0.2C2.7,10.600
Sn0.84Eu0.3Mo6.35S8,10.600
Y1Rh4B4,10.600
Lu1Ru1B2,10.600
Ba1Fe1.772Co0.228As2,10.600
Fe1Se0.9S0.1,10.600
Fe1Se0.85,10.600
Sm0.1Fe0.9Se0.85,10.600
Ba0.1Fe0.9Se0.85,10.600
Na1Fe0.925Co0.075As1,10.600
La1Fe1As0.7P0.3O1,10.600
V0.760Si0.092Ga0.148,10.580
Lu1Ru1B2,10.580
Li1Fe0.98Ni0.02As1,10.580
Au0.242Nb0.758,10.560
Au0.24Nb0.76,10.560
Au1Nb3,10.560
Tc0.97Ti0.03,10.560
Nb3Pt1,10.530
Fe1Se0.86S0.14,10.520
Ba1Pb0.75Bi0.25O3,10.500
Nd1.573Y0.278Ce0.15Cu1O4,10.500
La1.675Nd0.2Sr0.125Cu1O4,10.500
Sm1.48Gd0.37Ce0.15Cu1O4,10.500
Ca1.825Na0.175Cu1Br2O2,10.500
Li1.05Ti1.95O4,10.500
C1.35Ca0.1Y0.9,10.500
C1Ta0.45W0.55,10.500
Mo1Ru1,10.500
Nb1Tc3,10.500
V3Si0.72Ga0.28,10.500
V3Si0.986Sb0.014,10.500
Nb3Sn0.35Sb0.65,10.500
Sn1Mo6S8,10.500
Cu2.6Mo6S8,10.500
La1Pt2B2C1,10.500
Y1Pt2B2C1,10.500
Y1Ni1.4Cu0.6B2C1,10.500
Er1Ni2B2C1,10.500
Lu1Ni1.93Co0.14B2C1,10.500
C1Nb1,10.500
Na2Cs1C60,10.500
Zr1Rh1Si1,10.500
La1Pt2.1B2.4C1.2,10.500
Cu1.8Mo6S8,10.500
Y2I1.4Br0.6C2,10.500
Y2I1.3Br0.7C2,10.500
Mo0.7Re0.3,10.500
V3Ga0.2Si0.8,10.500
Nb0.25Ti0.75N0.98,10.500
Cu1Mo3S4,10.500
Ir0.4Nb0.55O0.05,10.500
N0.78Nb1,10.500
Ta0.2Mo0.8C1,10.500
Ba1Fe1.924Co0.076As2,10.500
Fe1Se0.82Cl0.18,10.500
Fe1Te0.8Se0.2,10.500
Ca10Pt3.97Fe9.03As18,10.500
Ba0.82K0.18Fe2As2,10.500
La1Fe1As1F0.15O0.85,10.500
Sm1Fe1As0.47P0.53H0.09O0.91,10.500
Ca1K1Fe3.804Ni0.196As4,10.500
Nb5Ir3O1,10.500
Nb0.25Zr0.75,10.450
V2Hf0.87Ta0.13,10.450
Nb5Ir2.2Pt0.8O1,10.440
Cu2Mo6S8,10.430
Fe1Se0.93S0.07,10.420
La1.85Sr0.15Cu0.979Zn0.021O4,10.400
Ca0.2Ba1.55La1.25Cu3O6.98,10.400
Bi1.95Sr1.65La0.4Cu1O6.414,10.400
La1.875Ba0.065Sr0.06Cu1O4,10.400
Li1.12Ti1.88O4,10.400
Li1.07Ti1.93O4,10.400
Rh0.03Zr0.97,10.400
Tc0.9W0.1,10.400
V2.91Mo0.09Si1,10.400
Nb0.500Zr0.450Ta0.050,10.400
Y1Ni1.4Cu0.6B2C1,10.400
Er1Ni2B2C1,10.400
Y1Ni1.24Pd0.76B2C1,10.400
Y1Ni1.34Pd0.66B2C1,10.400
V0.75Si0.125Al0.125,10.400
V0.73Si0.23Al0.04,10.400
Nb0.5Zr0.5,10.400
Y0.83Er0.17Rh4B4,10.400
Fe1Cr0.01Se1,10.400
C1Ta1,10.350
Y2I1.75Br0.25C2,10.350
Th1Co0.7Ni0.3C2,10.340
Fe1Se0.91S0.09,10.330
Fe1Se0.83S0.17,10.330
Ba1Pb0.78Bi0.22O3,10.300
Sm1.573Y0.278Ce0.15Cu1O4,10.300
Li1.1Ti1.9O4,10.300
Al1V3,10.300
Nb0.5Ti0.5,10.300
Nb0.5Ti0.1Zr0.4,10.300
Nb0.500Zr0.400Ta0.100,10.300
Cu1.3Mo6S8,10.300
Er1Ni2B2C1,10.300
La1Ru4As12,10.300
Tm1Ni1.99Co0.02B2C1,10.300
Nb0.741Ga0.197Fe0.062,10.300
Zr1Rh1Si1,10.300
Y1Ni1.54Pd0.46B2C1,10.300
La0.9Nd0.1Pt2.1B2.4C1.2,10.300
V0.72Si0.17Al0.11,10.300
V0.75Ge0.2Al0.05,10.300
Nb0.6Zr0.4,10.300
Nb0.5Zr0.5,10.300
Th1.8Lu0.2C3,10.300
La1Fe0.98Co0.02As1F0.11O0.89,10.300
Fe1Se0.8,10.300
La1Fe1As0.75P0.25O1,10.300
Ga1P1,10.300
Zr1Ru0.95Fe0.05P1,10.300
Zr1Ru1P1,10.300
Pb7Bi3,10.300
Fe0.98Co0.02Se0.3Te0.7,10.300
Re0.25Mo0.75,10.300
Fe1Se0.92S0.08,10.300
Er1Ni1.98Fe0.02B2C1,10.270
Nb5Ir2.4Pt0.6O1,10.270
La1Bi1S2F0.4O0.6,10.260
K0.85La0.15Bi1O3,10.250
Ba1Pb0.8Bi0.2O3,10.250
La0.88Mo6Se8,10.250
Li1.1Ti1.9O4,10.250
K2Mo3As3,10.250
Er1Ni2B2C1,10.230
La1.94Ba0.06Cu1O4,10.200
K1Bi1O3,10.200
K0.95Bi1.05O3,10.200
K0.9Bi1.1O3,10.200
K0.8Bi1.2O3,10.200
La1.7Sr0.3Cu1O3.997,10.200
Pu1Co0.1Rh0.9Ga5,10.200
C1Ta1,10.200
C1Mo0.83Ti0.17,10.200
C1.35Sn0.1Y0.9,10.200
Ir0.125Rh0.125Zr0.75,10.200
V3Ga0.999Zn0.001,10.200
Nb0.474Ti0.092Zr0.434,10.200
Nb0.495Zr0.505,10.200
Sn0.5Eu0.5Mo6S8,10.200
Tm1Ni2B2C1,10.200
Y1Ni1.94Fe0.06B2C1,10.200
La1Pt1.5Au0.6B2C1,10.200
Ho0.75Y0.25Ni2B2C1,10.200
Nb3.2Al0.24Ge0.4,10.200
Pb0.7Yb0.3Mo6Se8,10.200
Mo0.65Re0.35,10.200
La1Pt2.1B2.4C1.2,10.200
V0.783Ga0.138Al0.079,10.200
Nb0.67Hf0.33N1,10.200
Mo0.55Pt0.05Re0.4,10.200
Mg1B1.7C0.3,10.200
Y1.8Sn0.2C2.7,10.200
Sn0.6Eu0.5Mo6.35S8,10.200
La1Fe1As1O1,10.200
Lu1Ru1B2,10.200
Eu0.7Sr0.3Fe1.715Co0.285As2,10.200
La2.95Ce0.05Ni2B2N2.7,10.200
Sr1Pt2Ge2,10.200
Na1Fe0.994Cu0.006As1,10.200
C1Ta1,10.160
Fe1.02Te0.5Se0.2S0.3,10.160
Na1Fe0.996Cu0.004As1,10.140
Gd0.75Nd1.1Ce0.15Cu1O4,10.100
Y0.45Pr0.55Ba2Cu3O6.98,10.100
Y1Ba2Cu3O6.41,10.100
Y1Ba2Cu3O6.38,10.100
Zr0.5Hf0.5V2,10.100
La1.71Sr0.25Ho0.04Cu1O4,10.100
Au0.1C1.3Y0.9,10.100
Be12Mg1Re1,10.100
C1Ta0.5W0.5,10.100
Hf0.5V2Zr0.5,10.100
Mo0.3Nb0.1Re0.6,10.100
N0.9Nb0.114Ti0.886,10.100
Nb0.7Ti0.3,10.100
V3Si0.6Al0.4,10.100
V2.865Fe0.135Ga1,10.100
Nb0.565Zr0.288Hf0.147,10.100
Nb0.521Zr0.425Hf0.054,10.100
Y1Ni1Cu1B2C1,10.100
Y2Cu2I2,10.100
Y1Ni1.46Pd0.54B2C1,10.100
Rh0.09Zr0.91,10.100
Y1.8Au0.2C2.6,10.100
Sn0.72Eu0.4Mo6.35S8,10.100
Ga0.197Mn0.049V0.754,10.100
Mo0.2W0.8C1,10.100
Ba1Fe1.772Co0.228As2,10.100
Y0.99Gd0.01Rh4B4,10.100
La1Fe0.998Mn0.003As1F0.11O0.89,10.100
Zr1Ru0.99Rh0.01P1,10.100
Zr1Ru1P1,10.100
Fe1Se0.91S0.09,10.100
La0.8Y0.2Fe0.975Mn0.025As1F0.11O0.89,10.100
La1Fe1As0.2P0.8F0.14O0.86,10.100
Nb0.68Zr0.32,10.050
Y2I1.25Br0.75C2,10.050
La1Fe0.99Zn0.01As1O0.85,10.040
Nb0.75Ti0.25,10.020
Y0.75Tb0.25Ni2B2C1,10.020
Fe1Se0.574Te0.246,10.010
Tl2Ba2Cu1O5.989,10.000
La1.89Sr0.11Cu1O4,10.000
Eu1.55La0.3Ce0.15Cu1O4,10.000
Sr0.4Ca13.6Cu24O41.84,10.000
Bi1.95Sr1.65La0.4Cu1O6.2,10.000
Ba1.6Sr0.4Yb1Cu3O6.48,10.000
Cu2Ce0.7Sr2Y1.3O8.91,10.000
Cu7.5Sr2Ca6Cr0.5O17.1,10.000
Nd0.65Pr0.35Ba1Ca1Cu3O7,10.000
Sm1.665Y0.185Ce0.15Cu1O4,10.000
La0.9Pr0.85Sr0.25Cu1O4,10.000
Y1Ba2Cu2.91Zn0.09O6.68,10.000
Y1Ba2Cu2.91Zn0.09O6.65,10.000
La1.48Nd0.4Sr0.12Cu1O4,10.000
Dy1Ba2Cu2.7Fe0.3O6.96,10.000
La1.78Sr0.22Cu0.985Zn0.015O4,10.000
Y0.5Pr0.5Ba2Cu3O6.965,10.000
La1.7Sr0.3Cu1O4,10.000
Bi2Sr2Cu1O6.09,10.000
Bi2Sr2Cu1O6.16,10.000
Y0.8Pr0.2Ba2Cu3.925Fe0.075O8,10.000
Pr1.87Ce0.13Cu1O4,10.000
Gd1Ba1.65Pr0.35Cu3O6.97,10.000
La1.64Eu0.2Sr0.16Cu1O4,10.000
Ca1.85Na0.15Cu1Br2O2,10.000
Pu1Co0.8Fe0.2Ga5,10.000
Y2C2I2,10.000
La1.85Ce0.15Cu1O4,10.000
Mo3Al2C1,10.000
Nb3Au0.7Pt0.3,10.000
C6Ca1,10.000
Ba8Ge46,10.000
La3Se4,10.000
Pr2Ba4Cu7O14.5,10.000
Al2C1Mo3,10.000
Al0.175Nb0.775Zr0.05,10.000
C1Nb0.4Ta0.6,10.000
C0.5W0.5,10.000
Mo6.35Pb0.7S8Sn0.36,10.000
N1Nb1,10.000
Nb0.508Zr0.466Hf0.026,10.000
As1Ga1,10.000
Er1Ni2B2C1,10.000
C1.35Y1,10.000
Lu1Pd4B1C0.2,10.000
Y1Cu2B2C1,10.000
Tm1Ni2B2C1,10.000
Cu1.8Mo6S8,10.000
Mo0.75Re0.25,10.000
Mo0.57Re0.43,10.000
Li1.4Zr1N1Cl1,10.000
Ho0.45Lu0.55Ni2B2C1,10.000
C0.03Rh0.43Ta0.54,10.000
Ga0.21V0.79,10.000
Nb0.8Ta0.2C1,10.000
C1Ta1,10.000
Ta0.6W0.4C1,10.000
La1Pt2B2C1,10.000
Ce1Fe0.9Co0.1As1O1,10.000
Ba1Pb0.65Hg0.1Bi0.25O3,10.000
Li0.9Mo6O17,10.000
Fe0.95Co0.05Se1,10.000
Fe0.95Ni0.05Se1,10.000
C6Ca1H1,10.000
Fe1Se0.1Te0.9,10.000
Nd1Fe0.8Rh0.2As1O1,10.000
Fe1Te0.9S0.1,10.000
Fe1Se0.85,10.000
Y0.71Er0.29Rh4B4,10.000
Sm1Fe0.85Co0.15As1O1,10.000
Ba0.825K0.175Fe2As2,10.000
Ba0.88K0.12Fe2As2,10.000
Ca0.8Pr0.2Fe1As2,10.000
Ce1Fe0.74Co0.26As1H1,10.000
Eu1Fe2As1.4P0.6,10.000
Ba0.823K0.177Fe2As2,10.000
La0.5Bi1S2F0.5O0.5,10.000
Ba0.18K0.82Fe2As2,10.000
Nb2Ge1C1,10.000
Cu0.3Zr1Te2,10.000
Ga41Mo1,10.000
Fe1Se0.89S0.11,10.000
La0.994Tb0.006Al2,1.996
Au0.3Te0.7,1.990
La2Ir3Si5,1.990
Bi3.9Ag0.1S3O4,1.990
Tl1Ni2Se0.4S1.6,1.990
Pd0.316Zr0.684,1.980
Nb0.222U0.778,1.980
Ni3Th7,1.980
Ir0.69Y0.31,1.980
O3Rb0.27W1,1.980
Ni0.3Th0.7,1.980
Pt0.035W0.965,1.980
Nb0.8Pd0.2,1.980
Rb0.33W1O3,1.980
La3Pd4Si4,1.980
Tl1Ni2Se0.6S1.4,1.980
Mo1Rh1,1.970
Mo0.3U0.7,1.970
Ni3Th7,1.970
La1Ni1Ga2,1.970
Tm5Rh4.8Co1.2Sn18,1.970
U0.98Th0.02Pd2Al3,1.970
Ce0.875Yb0.125Co1In5,1.970
Ce0.95Nd0.05Co1In5,1.970
Nb3Rh0.95Co0.05,1.960
Al0.1V0.9,1.960
Ti2.01Nb0.99Sb1,1.960
Au0.28Te0.72,1.960
I4Sn1,1.960
Tl1Ni2Se1S1,1.960
Ag0.05Rh0.04Ti0.91,1.950
Nb0.83Sb0.17,1.950
Os1Ta1,1.950
Tm1.2Mo6S8,1.950
Lu1.2Mo6S8,1.950
Ta0.85W0.15,1.950
Hf0.8Rh0.2,1.950
Ti0.5Nb0.25Sb0.25,1.950
Ti0.85V0.15,1.950
Ga9Rh2,1.950
Nb3Te4,1.950
La3Co4Sn13,1.950
La1Pt1.8Ge2.2,1.950
La3Co2Sn13,1.950
Sn0.67Ag0.33Te1,1.950
Sn0.6Ag0.4Te1,1.950
Ce1Co1In5,1.950
Cu0.1Ir1Te1.5Se0.5,1.950
Hf1Rh0.9Pd0.1Si1,1.950
Na0.926Sn2P2,1.950
K1Hg1C8,1.940
Y1In0.75Pb2.25,1.940
B1Ta0.5W1.5,1.940
La3Pr0.75In1,1.940
U0.99Pd2Al3,1.940
Ni3Th7,1.940
Re0.987Ru0.013,1.937
Re0.947Os0.053,1.934
K1Hg1C8,1.930
Os0.058Re0.942,1.930
Os0.06Re0.94,1.930
Sn0.672Ge0.168In0.16Te1,1.930
Ce1Ru1.93Co0.07,1.930
U1Pd2Al3,1.930
Pd0.12Ti1Se2,1.930
Ce1Co1In4.972Sn0.028,1.930
Ni0.275Zr0.707Mn0.019,1.920
Au1Tl1,1.920
La0.98Pr0.02Ru2,1.920
Tm1Pd2Sn1,1.920
La7Ru3,1.920
Cu1Rh1.78Sn0.22Se4,1.920
Os0.046Re0.954,1.920
Os0.065Re0.935,1.920
Ru2Zr1,1.920
La0.948Ce0.052Sn3,1.920
Ir0.88Pt0.12Te2,1.920
Ce1Co1In4.945Cd0.055,1.920
Ce0.8Yb0.2Co1In5,1.920
Ce0.3Pr0.7Bi1S2O1,1.920
Mo0.5Rh0.5,1.910
U0.88Mo0.12,1.910
Mo1Te1.7Se0.3,1.910
Rb0.27W1O3,1.900
K1Hg1C8,1.900
C2Li1,1.900
Au1Ga2,1.900
Ba0.13O3W1,1.900
Ga2Pt1,1.900
Ge1Nb2,1.900
Mn0.02Ti0.98,1.900
S1Y1,1.900
Sn0.35Te0.65,1.900
Ba0.13W1P3,1.900
Nb3Rh0.9Co0.1,1.900
Ir1Nb3,1.900
S2Ta1,1.900
Tm5Ir4Si10,1.900
Ho1Ir3.6Rh0.4B4,1.900
Cr0.2V0.8,1.900
Hf0.9Rh0.1,1.900
Rh0.03Ti0.97,1.900
Sc4Rh6Sn19,1.900
In1Y1Au2,1.900
Se3Ta1,1.900
Nb0.76Pd0.24,1.900
Th3Rh4Sn13,1.900
Sc4Rh6Ge19,1.900
Ga9Rh2,1.900
La1Rh1Sn1,1.900
Ni0.06Ta1S2,1.900
U1Pd2Al3,1.900
K0.8Fe2Se0.42S1.58,1.900
Sn0.95In0.038Te1,1.900
Sn0.915In0.073Te1,1.900
Sn3Zr5,1.900
Lu1Pt2Si2,1.900
Ce0.95Nd0.05Co1In5,1.900
Sr1Pd2Sb2,1.900
La0.99Ce0.01Ni1C2,1.900
U0.85Nb0.15,1.900
U1Be12.99B0.01,1.890
Ce1Rh0.07Co0.93In5,1.890
Pd0.95Te2,1.890
Pd1Te2.1,1.890
Nb0.6Os0.4,1.890
U1Pd2Al3,1.890
Li0.9Mo6O17,1.890
Lu4.5Ho0.5Ir4Si10,1.890
Cr0.055V0.945,1.890
Nb0.72Pd0.28,1.890
Au0.332Te0.668,1.890
La0.997Gd0.003Al2,1.890
Ce1Bi1S2F0.5O0.5,1.890
Ce0.98Yb0.02Co1In5,1.890
Ba1Nb1S3,1.890
Ba0.35K0.65Bi1O3,1.880
Sn0.87Ag0.1Te1,1.880
Pd1Te1.08,1.880
Y0.5La0.5Rh3B2,1.880
C8K1Hg1,1.880
Cr0.1V0.9,1.880
La0.85Pr0.15Pb3,1.880
Os0.084Re0.916,1.880
U1.01Pd2Al3,1.880
Ru0.77Rh0.23As1,1.880
Os0.082Re0.918,1.876
Ge1.8La1,1.870
Sn0.63Ge0.21In0.16Te1,1.870
La0.2Th0.8,1.870
Pr1Os4Sb12,1.870
Pb0.987Tl0.013Na0.005Te1,1.870
Zr2Co0.3Ni0.7,1.870
Nb2Pd1S3.5Se1.5,1.870
La1Pt1.85Ge2.15,1.870
Ce1Co1In4.97Sn0.03,1.860
Pr1Os4Sb12,1.860
Li2B1Pt3,1.860
Fe3Th7,1.860
Ta0.84W0.16,1.860
Nb0.67V0.33N0.94,1.860
Nb0.5V0.5N0.94,1.860
Nb0.005Zr0.995,1.860
Sn0.04V0.96,1.860
La0.946Ce0.054Sn3,1.860
B1I3,1.860
Ce1Co0.95Ni0.05In5,1.860
K1Hg1C8,1.850
Pr1Os4Sb12,1.850
Ir1Mo1,1.850
La0.7Y0.3,1.850
Mo0.12U0.88,1.850
Nb0.6Os0.4,1.850
Nb0.26U0.74,1.850
Pb3Sr1,1.850
Pd0.87Te2,1.850
Pd1Te2.3,1.850
Mo0.1U0.9,1.850
La2Rh3Sn5,1.850
Hf1Os2,1.850
Nb3Se4,1.850
Au0.25Te0.75,1.850
La1Rh1Sn1,1.850
Sn0.961In0.027Te1,1.850
La1Pt1.85Ge2.15,1.850
Cs2Cr3As3,1.850
Zr1Ir1Si1,1.850
Hf1Rh0.8Pd0.2Si1,1.850
Lu1Pd1Bi1,1.850
As1Cr1,1.850
Os0.027Re0.973,1.844
Ce1Rh0.75Ir0.25In5,1.840
Pr0.95La0.05Os4Sb12,1.840
Au2Bi1,1.840
Ru2Zr1,1.840
Zr0.127Ti0.043Cu0.029Ni0.042Be0.758,1.840
Re0.994W0.006,1.840
Os0.028Re0.973,1.840
Nb0.69Pd0.31,1.840
Nb0.65Pd0.35,1.840
Ce0.965La0.035Co1In5,1.840
Ce0.916Yb0.084Co1In5,1.840
Cs1Fe2As2,1.840
Co3Th7,1.830
Re0.67Y0.33,1.830
Re2Y1,1.830
Er1Ir3.6Rh0.4B4,1.830
Pr1Os4Sb12,1.830
Y1Fe2Ge2,1.830
Ce1Co1In4.95Cd0.05,1.830
Al0.108V0.892,1.820
Ce1Ir5,1.820
Yb1Pd2Sn1,1.820
Pr1Os4Sb12,1.820
B1Mo1.5Ta0.5,1.820
Cu0.12Ta1S2,1.820
Pd0.11Ti1Se2,1.820
Ce1Co1In4.75Zn0.25,1.820
Ce1Rh1In5,1.820
Pr1Os4Sb12,1.810
B1Mo1.5Ta0.5,1.810
Ir0.49Mo0.51,1.810
Cs1Fe2As2,1.810
Sm1.85Th0.15Cu1O3.98,1.800
Pr0.98La0.02Os4Sb12,1.800
Pr0.8La0.2Os4Sb12,1.800
Rb0.5Nb1S2,1.800
La1Os4P12,1.800
C1Ir2Mo3,1.800
Cu3Sb1,1.800
Rh0.91Ti0.04Zr0.05,1.800
Mo0.025Ti0.975,1.800
Co3Th7,1.800
Tm2Rh3Sn5,1.800
Gd1Mo6S8,1.800
Mo6S8,1.800
Nb3Te4,1.800
Tb1.2Mo6S8,1.800
Pr1Ru4P12,1.800
Rh0.005Ti0.995,1.800
Y1,1.800
Cd1Mo6S8,1.800
Cu1Se1Te1,1.800
Lu4Os6Sn19,1.800
Ti0.496Zr0.504,1.800
Mg1C0.69Ni3,1.800
Al1,1.800
Bi1.09Ta1Se3.09,1.800
Bi1.09Ta2Se5.09,1.800
Ti1Se2,1.800
K0.2Fe2S2,1.800
Te3Zr1,1.800
Sn0.927In0.061Te1,1.800
Sn0.923In0.065Te1,1.800
Y3Ru4Ge13,1.800
Ir3Te8,1.800
Ce1Co0.6Ru0.4In5,1.800
La1C2,1.800
Au1Te2,1.800
Cs1Fe2As2,1.800
Ru0.75Rh0.25As1,1.800
Ru0.6Rh0.4As1,1.800
Sm0.05La0.95Ni1C2,1.800
Sm0.03La0.97Ni1C2,1.800
Lu1Pt2Si2,1.800
Pr0.95La0.05Os4Sb12,1.790
Th1Ru3B2,1.790
Au0.85Pd0.15Ga2,1.790
Os0.115Re0.885,1.790
Os0.113Re0.887,1.790
Rh0.025Ti0.975,1.790
Au0.05Zr0.95,1.790
Sn0.902Pb0.048In0.05Te1,1.790
Nb0.6Os0.4,1.780
Pd1Tl1Pb1,1.780
Sn0.87Ag0.1Te1,1.780
Nb3Os2,1.780
Fe0.4Ni0.6Zr2,1.780
Dy1Rh3.2Ir0.8B4,1.780
Ce1Co1In7.65Zn0.35,1.780
Pd1Te2,1.780
Ce0.95Sm0.05Co1In5,1.780
Eu3Bi2S3.8Se0.2F4,1.780
Pr1Os4Sb12,1.770
Pd1.05Te2,1.770
Cd1Hg1,1.770
Ce1Co0.5Ru0.5In5,1.770
Rb0.33W1O3,1.760
Pt0.22V0.78,1.760
Y2Re3Si5,1.760
Os0.006Re0.994,1.760
Sn0.904In0.084Te1,1.760
Cu1Ir1.6Pt0.4Se4,1.760
Sn0.88Pb0In0.12Te1,1.760
Ce1Co0.96Pt0.04In5,1.760
In0.1Sn0.9Te1.01,1.750
Al0.33Ge0.67,1.750
Au0.95Pd0.5Ga2,1.750
Ba0.1Pb3Sr0.9,1.750
La1Tl1.5Pb1.5,1.750
Al1Ge2,1.750
La7Ru3,1.750
Cu1S1Se1,1.750
Tm1Ir4B4,1.750
Ba1Pt1Si3,1.750
Hf1Rh0.7Pd0.3Si1,1.750
Ti0.95Ta0.05Se2,1.750
Pd1Te2,1.750
Li0.1K1Ca1Nb3O10,1.750
Ga1Pt1,1.740
Sb2Zr3,1.740
Sn0.921Ge0.029In0.05Te1,1.740
Au2In1Y1,1.740
Nd0.4Ce0.6Co1In5,1.740
La0.7Hf0.3Bi1S2O1,1.740
La0.6Hf0.4Bi1S2O1,1.740
K0.4W1O3,1.740
Ba1Cu0.6Si1.4,1.740
Ce1Rh0.13Co0.87In5,1.730
Bi2Pd1,1.730
Hf1Rh1,1.730
La0.91Nd0.09Pt1Si1,1.730
Cu0.4Zn0.6Ir2S4,1.730
Al0.12V0.88,1.730
Rh0.02Ti0.98,1.730
Sn0.9Ag0.07Te1,1.730
Pr0.9Nd0.1Os4Sb12,1.730
Rb1Fe2As2,1.730
Ce0.95Yb0.05Co1In5,1.730
Ce1Co1In4.95Hg0.05,1.730
La0.47Th0.53Ru2,1.730
Sn0.902Ge0.048In0.05Te1,1.720
Zr1Os1Si1,1.720
La0.96Nd0.04,1.720
Pd0.985Ni0.015H0.75,1.720
Dy1.2Mo6S8,1.720
Au0.24Te0.76,1.720
Pd0.95Pt0.05Te2,1.710
Os0.001Re0.999,1.710
Os0.002Re0.998,1.710
Ir0.37V0.67,1.710
Au0.16Te0.84,1.710
Pb0.975Tl0.013Na0.013Te1,1.710
Pr1Pt4Ge10.5Sb1.5,1.710
La1F0.5Bi0.72S2Sb0.12O0.6,1.710
Li0.9Mo6O17,1.700
Pr0.9La0.1Os4Sb12,1.700
Bi3Ca1,1.700
K1Hg1C8,1.700
K0.5Nb1S2,1.700
Al0.6Mg0.4,1.700
As1Pd2,1.700
Be2Nb1.5Ta1.5,1.700
Ca1Hg5,1.700
Cd0.9Ge0.1,1.700
Ce1,1.700
Co1U1,1.700
Hf0.875Re0.125,1.700
Hf0.05Rh0.04Ti0.91,1.700
Ir0.98Re0.02,1.700
Mo0.77Si0.23,1.700
Pt2.2Y1,1.700
Sn0.25Te0.75,1.700
Bi2Pd1,1.700
Nb3Rh0.7Os0.3,1.700
Bi2Ir1,1.700
Cd0.3Hg0.7,1.700
Dy1.2Mo6S8,1.700
Y3Ru4Ge13,1.700
Cu1.2Co1.8S4,1.700
Rh0.5Pd0.5Pb2,1.700
Ir0.7Re0.3,1.700
Re1,1.700
Ca3Ir4Ge13,1.700
Au0.14Te0.86,1.700
Lu1Re2,1.700
Ba1Pb0.8Sb0.2O3,1.700
Ca3Ir4Ge4,1.700
Pb3.9Ag1.1Bi6Se14,1.700
Au2Bi1,1.700
Eu0.5La0.5F1Bi1S2,1.700
Lu1Pd1Bi1,1.700
Hf1As1.67Te0.12,1.700
Zr1Ir1Si1,1.700
Mo0.001Re0.999,1.697
Re0.999Mo0.001,1.694
Pd1Te2,1.690
La0.96Nd0.04,1.690
Ce1Co0.925Ni0.075In5,1.690
Cr0.797Ru0.203,1.690
Re1,1.690
Ga2Y1,1.680
Hf1Zr1C1,1.680
Pr1Os3.8Ru0.2Sb12,1.680
Y2Fe3Si5,1.680
Ce0.95La0.05Co1In5,1.680
Pb0.196Sn0.784In0.02Te1,1.680
Cu0.2Ir1Te1.7Se0.3,1.680
Pr0.6La0.4Os4Sb12,1.670
Pd0.51Sb0.49,1.670
Ru2Sc1.2,1.670
La0.999Ce0.001Rh3B2,1.670
Ru2Sc1,1.670
Os0.232Re0.768,1.670
Pd0.541Mo0.003Sb0.456,1.670
H0.54Nb0.65Pd0.35,1.670
La1Pt1.9Ge2.1,1.670
U1Be12.97B0.03,1.660
Pd1Sb1,1.660
Mo0.2Ru0.8,1.660
Cr0.2V0.8,1.660
Sn0.92Ag0.05Te1,1.660
Ir1Nb3,1.660
Pd0.26Ti0.74,1.660
Ga0.2V2Al20,1.660
La0.8Zr0.2Bi1S2O1,1.660
Cu1S1,1.650
Pd0.95Rh0.05Te2,1.650
Pd0.9Pt0.1Te2,1.650
Ti0.5Zr0.5,1.650
Pb0.9Pt0.1Te2,1.650
La1Ir3B2,1.650
Pd0.52Sb0.48,1.650
C6Sr1,1.650
Tm0.9Lu0.1Fe3Si5,1.650
Y1.6Lu0.4Fe3Si5,1.650
La0.75Y0.25Ni1C2,1.650
Ga0.2V2Al20,1.650
Sr1Au1Si3,1.650
Ba6Nb10O30,1.650
Te2U1,1.650
U1Pd2Al2.97Ga0.03,1.640
Sn0.874Ge0.076In0.05Te1,1.640
Th0.8Y0.2,1.640
Tb1.2Mo6S8,1.640
H0.34Nb0.72Pd0.28,1.640
Au0.15Te0.85,1.640
Cu1Ir1.4Pt0.6Se4,1.640
Y1Pt2Si2,1.640
Pd1Te2,1.640
Ba1Pt1Sb1,1.640
Tb1Pd1Bi1,1.640
Pr1Os3.8Ru0.2Sb12,1.630
Al0.28Mg0.18,1.630
Pd2.2S1,1.630
Pd2.8S1,1.630
Au0.293Ga0.707,1.630
La1Ru2,1.630
Th0.75Y0.25,1.630
La1Tl3,1.630
Dy1Rh1.2Ir2.8B4,1.630
Lu1Ni1Si3,1.630
Pr1Os3.6Ru0.4Sb12,1.620
Au3Te5,1.620
La1Rh5,1.620
Ce1Rh1In5,1.620
Ir2Y3,1.610
Nb3Se4,1.610
Sn0.941Ge0.009In0.05Te1,1.610
La0.95Gd0.05Ru2,1.610
Pd0.539Ti0.006Sb0.455,1.610
La0.992Tb0.008Al2,1.610
Ce1Ir1Ge3,1.610
Pb0.99Tl0.005Na0.005Te1,1.610
Pr0.8Nd0.2Os4Sb12,1.610
Pb0.333Sn0.618In0.05Te1,1.610
La0.983Lu0.007Tb0.009,1.608
La0.983Lu0.007Tb0.010,1.602
Ce1Ir1Si3,1.600
Cu0.489Zr0.511,1.600
C1Rh1,1.600
Ca1Hg3,1.600
Ca1Hg1,1.600
Ge1Mo3,1.600
Ir0.04Ti0.96,1.600
La5Si3,1.600
Mn0.33Ni0.67U6,1.600
Nb0.6Pd0.4,1.600
Ni1Zr2,1.600
S2Ta1,1.600
As1Ni0.25Pd0.75,1.600
Cu1Se1Te1,1.600