formula,Tc
Ce1Pt3Si0.97Ge0.03,0.630
U0.99Th0.01Be13,0.630
Am1,0.620
Ce1Ir0.8Co0.2Si3,0.620
Ge2U1,0.620
B2Nb1,0.620
Ce1Cu2.53Si2,0.620
Ce1Rh0.6Ir0.4In5,0.620
Ce1Rh0.25Ir0.75In5,0.620
Ce1Cu1.95Si2.01,0.620
Rh0.7Ru0.3Se2,0.620
Gd0.01La0.99,0.620
Os1,0.620
Be13Lu1,0.620
Th1Pd2Ge2,0.620
Ce1Cu2Si2,0.610
Ir0.55Re0.15,0.610
U1Pd2Al3.03,0.610
Y1V2Al20,0.610
Pr1Ti2Al20,0.610
Sr2Ru0.999Ti0.001O4,0.600
Zn2Zr1,0.600
Ce2Rh1In8,0.600
Co0.611U0.389,0.600
As1Pd2,0.600
Au1In1,0.600
Gd0.01La0.99,0.600
Mo0.4Nb0.6,0.600
O1Ti1,0.600
Rh1Sn2,0.600
Ce1.025Cu2Si2,0.600
U0.97Th0.03Be13,0.600
Y1In2.25Pb0.75,0.600
Lu1,0.600
Ir0.72Re0.18Rh0.1,0.600
La1Pt3Si1,0.600
Be1,0.600
U1Co1Ge1,0.600
Nb1Te2,0.600
La1Ir2Zn20,0.600
Pr0.5Nd0.5Os4Sb12,0.600
Ce1Cu2Si2,0.600
Ca2In1N1,0.600
Ba1Pd0.5Si1.5,0.600
Sr1Pd2Sb2,0.600
Y1Fe2Ge2,0.600
Lu1V2Al20,0.600
Lu1Pd2Si2,0.600
Pt1Te1,0.590
Cr0.65Ir0.35,0.590
La1Ni1Sn1,0.590
Co0.000Mo1.000,0.590
Be13U0.976Th0.025,0.590
Au0.835Sn0.165,0.590
Ce0.85Sm0.15Co1In5,0.590
Sr1Ti1O3,0.580
U0.974Th0.026Be13,0.580
Al1Mo3,0.580
As1Rh1,0.580
Au1Sb2,0.580
Be0.9Ni0.1,0.580
Pt1Ti3,0.580
O1Ti1,0.580
Ce0.025Th0.975,0.580
La1Ir2Zn20,0.580
U0.998Th0.019Be13,0.573
Ce0.99La0.01Pt3Si1,0.570
Be0.95Os0.05,0.570
Pt3U1,0.570
Cu1Rh1.6Sn0.4Se4,0.570
Ce1Pd5Al2,0.570
Lu1Sn1Ge1,0.570
Be0.858Cu0.142,0.560
Co1Hf2,0.560
Lu1Se1,0.560
Rh5Y1,0.560
Na0.28O3W1,0.560
U0.962Th0.038Be13,0.560
Ce1Pt3Si0.94Ge0.06,0.560
U0.962Th0.038Be13,0.557
Sr0.95Ba0.05Ti1O3,0.550
Sr0.7Ca0.3Ti1O3,0.550
Al2Pt1,0.550
C8K1,0.550
Ir0.18Os0.47Rh0.35,0.550
Na0.2O3W1,0.550
Si3Sr2,0.550
C1K1,0.550
Pt3U1,0.550
La0.901Pr0.099Tl3,0.550
Ir0.64Re0.16Rh0.2,0.550
Ir0.6Os0.1Rh0.3,0.550
Cd1,0.550
Th0.999U0.001,0.550
La1Pt2Ge2,0.550
Be13U0.965Th0.035,0.550
Zr1,0.550
U1Co1Ge1,0.550
Lu0.8Zr0.2B12,0.550
Cu0.589Zr0.411,0.540
La0.28Pt0.72,0.540
Ce1Cu2Si1.98Ge0.02,0.540
O1.06Ti1,0.540
Ir0.15Os0.85,0.540
Ta1Ir1Te4,0.540
Ni0.404U0.596,0.530
Bi0.6Cd0.4,0.530
Cd0.97Hg0.03,0.530
Cd1,0.530
U0.957Th0.043Be13,0.530
Pr0.251Th0.749,0.530
Pd7Se2,0.530
Au0.845Sn0.155,0.530
Pt3U1,0.530
Sr1Ir1Ge3,0.530
Be13La1,0.530
U1Co1Ge1,0.530
Be13U1,0.530
Cd1,0.522
Zr1,0.520
U1Pd2Al2.7Ga0.3,0.520
U0.978Th0.022Be13,0.520
Pt3U1,0.520
Ce1Pd2Si2,0.520
Cd1,0.520
Hf1As1.7Se0.2,0.520
U0.982Th0.018Be13,0.519
Pb0.992Tl0.008Te1,0.510
Au1Ta4.3,0.510
U1Pt2.997Pd0.003,0.510
Ce1Pt3Si1,0.510
Fe0.000Mo1.000,0.510
Pt3U1,0.510
U1.02Ni2Al3,0.510
U0.983Th0.017Be13,0.510
Fe0.412Zr0.588,0.500
Ba1,0.500
Sr0.925Ba0.075Ti1O3,0.500
Sr0.95Ba0.05Ti1O3,0.500
Sr0.7Ca0.3Ti1O3,0.500
Sr0.925Ca0.075Ti1O3,0.500
Pt3U1,0.500
B1Mo1,0.500
Cr0.8Rh0.2,0.500
K0.27O3W1,0.500
Ce1Cu2Si1.98Ge0.02,0.500
Cr0.15Mo0.85,0.500
Ir0.82Mo0.18,0.500
Pd0.535V0.011Sb0.454,0.500
Sb1V3,0.500
U1Co1Ge1,0.500
Nb1Te2,0.500
Ta1Ir1Si1,0.500
La2Bi3Ag1S6O2,0.500
Th0.999U0.15,0.495
Zr1,0.490
Bi1Co1,0.490
Lu1Rh5,0.490
Rh0.67Te0.33,0.490
Ti1,0.490
S2Ta1,0.490
Pt3U1,0.490
Mo1Te1.9Se0.1,0.490
Cr0.82Re0.18,0.490
Ce1Ni1Ge3,0.480
B12Lu1,0.480
Hg3Mg1,0.480
Hg1Mg1,0.480
Ir2La1,0.480
Al2Pt1,0.480
Ir0.7Os0.3,0.480
La0.9Pr0.1Se1,0.480
Be13U0.981Th0.019,0.480
Pt3U1,0.480
U1Co1Ge1,0.480
Ba1Ti2As0.2Sb1.8O1,0.480
Eu2Sr1Bi2S4F4,0.480
Bi3Co1,0.480
Ce1Co1.67Rh0.33,0.470
O3Sr1Ti1,0.470
Y1Pd2Si2,0.470
Cu0.2Zn0.8Ir2S4,0.470
Ce1Ru0.1Co1.9,0.470
Os0.333Ru0.667,0.470
O0.86Ti1,0.470
Cu1Y1,0.470
In1N1,0.470
Sr2Ru0.999Ti0.001O4,0.460
As2Pd5,0.460
Ce1Co1.67Ni0.33,0.460
La1Pt2,0.460
Os1Ti1,0.460
As1Pd5,0.460
U0.955Th0.045Be13,0.460
Ir0.125Os0.375Rh0.5,0.460
Ce1Pt3Si1,0.460
Ce1Cu2Si2,0.460
Y1Ni1Ge3,0.460
K1Ni2S2,0.460
Ge3Nb5,0.460
Sr1Ni1Ge3,0.460
Mo1Te1.94Se0.06,0.460
Ce1Pt3Si0.94Ge0.06,0.451
Cr3Ir1,0.450
Ce1Rh1Si3,0.450
U1Co1Ge1,0.450
B6La1,0.450
Ge0.92Ga0.08,0.450
Ce1Ge2Rh1,0.450
Ge3Nb5,0.450
Lu1Pt2In1,0.450
U0.85Ti0.15,0.450
Pt1Th1,0.440
As0.5In1Te0.5,0.440
Ni0.007Ru0.993,0.440
B12Lu1,0.440
Ce1Co1In4.85Sn0.15,0.440
Ce1Co1In4.925Cd0.075,0.440
Sr2Ru1O4,0.430
Ce1Ni1Ge3,0.430
Sr1Ti1O3,0.430
Ni0.5V0.16Zr0.34,0.430
Zr1Ni1.5V0.5,0.430
Ce1Pd2Si2,0.430
Ce1Rh2Si2,0.430
Ce1Ir1In5,0.430
Pt0.014Ru0.986,0.430
Au0.855Sn0.145,0.430
Pa1,0.430
Pd4Se1,0.420
Bi1Co1,0.420
Sn0.504Ge0.336In0.16Te1,0.420
U1Pt2.994Pd0.006,0.420
B12Lu1,0.420
W1F0.41O2.59,0.420
U1Co1Ge1,0.420
Lu1Pt1.6Pd0.4In1,0.420
U0.954Th0.046Be13,0.415
Ce1Ir1In5,0.410
As2Mo1,0.410
Pd1Sn1,0.410
Pd2Sn1,0.410
Nb0.62Pt0.38,0.410
Ni1U6,0.410
Ir0.036Ru0.964,0.410
Ir0.85W0.15,0.410
W1F0.44O2.56,0.410
La1Pt2Ge2,0.410
Ce1Ir1In5,0.400
Au5Ba1,0.400
Ge1Pt1,0.400
Ir0.75Os0.25,0.400
La0.35Y0.65,0.400
Pt0.15Ta0.85,0.400
Ti1,0.400
Al1Au4,0.400
Au1In1,0.400
Cr0.6Ir0.4,0.400
U1Pt2.994Pd0.006,0.400
Ce2Co1In8,0.400
Ce1Cu2Si1.96Ge0.04,0.400
Co0.007Ru0.993,0.400
Pd0.015Ru0.985,0.400
Ir0.63Os0.27Rh0.1,0.400
La1Sb2,0.400
B12Lu1,0.400
Ce0.98Th0.02Pt3Si1,0.400
Sn0.576Pb0.384In0.04Te1,0.400
Y1Co2Ge2,0.400
Ce1Pd2Si2,0.390
Al1Os1,0.390
B12Sc1,0.390
C8K1,0.390
La1Pd2Si2,0.390
P4W14O50,0.390
Ti1,0.390
Cd1.000Mn0.000,0.390
C1,0.380
Ga1Zr2,0.380
Sr1Ti1O3,0.380
Rh1V3,0.380
U0.948Th0.052Be13,0.380
Ce1Rh2Si2,0.380
Ce1Ir1In5,0.380
La0.997Ce0.003Rh3B2,0.380
Cr0.3Ru0.7,0.380
Rh0.04Ru0.96,0.380
W1F0.45O2.55,0.380
Ce1Pt3.03Si0.97,0.370
Hf0.99Zr0.01,0.370
Ir1Th1,0.370
Pt1Sn1,0.370
Ce1Pd2Si2,0.370
Ce1Cu2Si1.96Ge0.04,0.370
Cr0.39V0.61,0.370
La0.7Pr0.3Pb3,0.370
Ir0.4Os0.3Rh0.3,0.370
C1,0.370
Au1Lu1,0.370
Rh1Th1,0.360
Ni0.031Ru0.969,0.360
Au0.462Ge0.405Yb0.133,0.360
La1Al1O3,0.360
Ce1Rh0.1Ir0.9In5,0.350
Cu0.589Zr0.411,0.350
Ni1U6,0.350
Al2Zr1,0.350
Fe0.02Sc0.05Zr0.93,0.350
Ni0.22V0.78,0.350
Co1Lu3,0.350
Co0.3Sc0.7,0.350
P1Pd3,0.350
U1Pt2.991Pd0.009,0.350
Ce1Ru0.2Co1.8,0.350
Ir0.165Rh0.165Os0.67,0.350
U1Co1Ge1,0.350
Eu1Bi1S2F1,0.350
U0.94Th0.06Be13,0.344
Sc1,0.340
Au5Ca1,0.340
Co0.28Y0.72,0.340
Co1Y3,0.340
Ir0.73Os0.17Ru0.1,0.340
Ag3.3Al1,0.340
Cr0.1Ru0.9,0.340
U1Pt2.991Pd0.009,0.340
Ir0.9Re0.1,0.340
Si1,0.340
Ti1,0.340
B0.057Si0.943,0.340
Sr1Ti1O3,0.330
U1Pd2Al2.4Ga0.6,0.330
Au0.875Sn0.125,0.330
Sc0.01Zr0.99,0.320
Au0.4Ge0.6,0.320
Cs1V6S8,0.320
Co0.015Ru0.985,0.320
Pr0.342Th0.658,0.320
Ce3Pt1In11,0.320
As1Nb3,0.310
Co0.001Mo0.999,0.310
Ce1Pt3Si0.9Ge0.1,0.310
Y1Ba1.5La0.5Cu3O7,0.300
Ag7F1O8,0.300
Sr1Ti1O3,0.300
Al2La1,0.300
Cu3Na2S3,0.300
Mo1Te2,0.300
Sr1Ti0.97Zr0.03O3,0.300
Eu1Bi1S2F1,0.300
La1Ti2Al20,0.300
N0.3S0.7,0.290
Zn2Zr1,0.290
Pt0.06Ru0.94,0.290
Ir0.9Mo0.1,0.290
Pr0.65Ce0.35Pt4Ge12,0.290
Mg7Zn3,0.280
Ir0.14Ru0.86,0.280
Ir0.56Os0.24Rh0.2,0.280
Au0.8In0.2,0.280
Pr0.25La0.75Ir2Zn20,0.280
Ce1Co0.83Pt0.17In5,0.280
U1,0.270
Ce1Cu2Si1.92Ge0.08,0.270
Ce1Ru0.3Co1.7,0.270
Co0.022Ru0.978,0.270
Rh0.105Ru0.895,0.270
Ir0.49Os0.21Rh0.3,0.270
Sr1Ti1O3,0.270
Ta1Se0.7Te1.3,0.270
N0.3S0.7,0.260
N1S1,0.260
Ce1Rh2Si2,0.260
Ir0.85V0.15,0.260
S1N1,0.260
U1Rh1Ge1,0.260
B1Ta1.5W0.5,0.250
As1Nb3,0.250
U1Rh1Ge1,0.250
Ir0.66Mo0.34,0.250
Co0.027Ru0.973,0.250
Ir0.56Re0.14Rh0.3,0.250
Ge1Te1,0.250
La4Sb3,0.250
Ba6Ge25,0.240
Cd0.96Mg0.04,0.240
In3Lu1,0.240
U1Pt2.988Pd0.012,0.240
Cu0.81Ge0.19,0.240
Ce1Ni2Ge2,0.230
Pb3Yb1,0.230
Ir0.9W0.1,0.230
U1Ru1.99Re0.01Si2,0.230
Ce2Ni3Ge5,0.220
Au1In2,0.220
Ce1Ni2Ge2,0.220
Ce1Rh0.65Ir0.35In5,0.220
Co0.001Mo0.999,0.220
Ir0.93Re0.07,0.220
Ir0.135Rh0.135Os0.73,0.220
Ir0.6Os0.2Rh0.2,0.220
C8K1H0.19,0.220
Ta1Se2,0.220
Be13U1,0.220
Ga1Hf2,0.210
Ge1Te1,0.210
Ce1Cu2Si1.8Ge0.2,0.210
Th1In2.25Sn0.75,0.210
Al0.5Ge0.5Th2,0.210
Pt0.113Ru0.887,0.210
Ir0.22Ru0.78,0.210
Ir0.1Os0.3Rh0.6,0.210
Re0.2Ta0.8,0.210
Au0.885Sn0.115,0.210
La1.85Sr0.15Cu0.982Fe0.018O4,0.200
Ce1Ni2Ge2,0.200
U1,0.200
Sr1Ti1O3,0.200
Ce1Cu2Si1.9Ge0.1,0.200
Ce1In3,0.200
Ce1Cu2Si1.88Ge0.12,0.200
Co0.034Ru0.964,0.200
Ni0.08Ru0.92,0.200
As1,0.200
Cu6Th1,0.200
Fe0.6Ni0.4Zr2,0.200
Ta1Se2,0.200
La1Ru2Zn20,0.200
In1N1,0.200
La1Fe0.985Zn0.015As1F0.08O0.9,0.200
Sm1Fe1As1H0.03O0.97,0.200
Pr1Ti2Al20,0.200
Ce1Cu2Si1.8Ge0.2,0.190
In3Rh1,0.190
Pr1Ti2Al20,0.190
Rh0.2Ru0.8,0.180
Ir0.32Ru0.68,0.180
Ir0.43Ru0.57,0.180
Rh0.6Ru0.4Se2,0.180
Ir0.71Ru0.29,0.180
Fe1Zr2,0.170
Ce1In3,0.170
Cd0.75Mg0.25,0.160
Hg1Mg3,0.160
Ir0.825Ru0.1Os0.075,0.160
Se2Ta1,0.160
Ir0.725Os0.175Rh0.1,0.160
U1Ni1.95Al3.05,0.160
Ag7B4F4O8,0.150
Ce0.985La0.015Pt3Si1,0.150
Ag7F4O8B1,0.150
Ce1In3,0.150
Ce1Cu2Si1.8Ge0.2,0.150
Ir0.94Ta0.06,0.150
Cr3Ir1,0.150
Ta1Se2,0.150
Ag7B1F4O8,0.150
La1V2Al20,0.150
Se2Ta1,0.140
Cu1Rh1.5Sn0.5Se4,0.140
Ir0.1Rh0.1Os0.8,0.140
Ir1U1,0.140
Ce1Pt1Si2,0.140
Pr1Ti2Al20,0.140
Zr1As1.58Se0.39,0.140
Se2Ta1,0.130
Ir0.75Mo0.25,0.130
Ir0.8Ru0.2,0.130
Ir0.46Re0.115Rh0.425,0.130
Au0.92Ga0.06In0.02,0.130
La3Sb3Y1,0.130
Cu0.82Ge0.18,0.130
Ce1Cu2Si1.8Ge0.2,0.120
O3Sr1Ti1,0.120
Ir0.71Mo0.29,0.120
Pt1Sb1S1,0.120
Mo0.5V0.5,0.110
Sc0.05Zr0.95,0.110
Rh0.32Ru0.68,0.110
Ir1,0.110
Ir0.99V0.01,0.110
Ir0.925Ru0.075,0.110
Ir0.845Ru0.155,0.110
Ag0.7Al0.3,0.110
Ce1Rh1In5,0.110
La0.15Y0.85,0.100
Ge0.976Te1,0.100
Ca0.31Sr0.7Ti1O3,0.100
Ba0.1Sr0.9Ti1O3,0.100
Ce1Cu2Si1.7Ge0.3,0.100
Cr0.48V0.52,0.100
Mo0.33Rh0.67,0.100
Ir0.1Os0.25Rh0.65,0.100
Ag0.65Al0.35,0.100
Sn1Te1,0.100
Ce1Ni2B2C1,0.100
Mo1Te2,0.100
La0.98Ce0.02Ni1C2,0.100
Al1Th2,0.090
Os0.97Rh0.03,0.090
Co0.07Ru0.93,0.090
Al0.06Au0.92Ga0.02,0.090
Ag0.795Sn0.205,0.090
Ag0.775Sn0.225,0.090
Sc0.07Zr0.93,0.080
Ir0.4Re0.1Rh0.5,0.080
Ge1Te1,0.080
Pd1V3,0.080
Yb1Al1B4,0.080
Al0.07Au0.92In0.01,0.076
Cu0.81Sb0.19,0.070
Hf1Mo2,0.070
Cr3Rh1,0.070
Pr1Ir2Zn20,0.070
Pr0.96La0.04Ir2Zn20,0.070
La1Os2Zn20,0.070
Au0.9In0.1,0.062
Al0.06Au0.92In0.02,0.062
Al0.056Au0.92In0.024,0.061
Ir0.9Nb0.1,0.060
Ir0.89Rh0.11,0.060
Sn1Te1,0.060
Ag0.815Sn0.185,0.060
Pr1Os2Zn20,0.060
Pr1Rh2Zn20,0.060
Al0.04Au0.92In0.04,0.056
Ag5Pb2O6,0.052
Hf1Mo2,0.050
O3Sr1Ti1,0.050
Ir0.95Pd0.05,0.050
Ir0.125Os0.2Rh0.675,0.050
Ir0.7Ru0.1Rh0.2,0.050
Cu0.86Si0.14,0.050
Pr1Ir2Zn20,0.050
Pr1V2Al20,0.050
Sn0.985Te1,0.049
Sn0.985Te1,0.043
Au0.92Ga0.02In0.06,0.043
Au0.91In0.09,0.042
Mo1Te1.63S0.37,0.040
Os0.32Rh0.68,0.038
Sn0.97As0.022Te0.978,0.033
Sn0.97As0.02Te0.98,0.032
Ce1.005Ni2.02Ge1.98,0.030
Ce0.98La0.02Pt3Si1,0.030
Ir0.72Pt0.08Rh0.2,0.030
As1Rh1.4,0.030
Cr0.57Mo0.43,0.030
Mo0.28Rh0.72,0.030
Ir0.8Rh0.2,0.030
La0.8Pr0.2Se1,0.030
Sn0.99Te1,0.029
Al0.01Au0.92In0.07,0.028
Au0.92In0.08,0.026
Pt1,0.020
Ir0.3Ru0.2Rh0.5,0.020
Ir0.7Os0.3,0.017
W1,0.015
Sn0.995Te1,0.014
Sn0.97As0.025Te0.975,0.014
Ag0.7Zn0.3,0.013
Au0.94In0.06,0.011
Gd0.71Sm1.14Ce0.15Cu1O4,0.010
Mo3Re1,0.010
C1Nb0.4Ta0.6,0.010
Ag0.81In0.19,0.007
Ag0.9Ga0.1,0.006
Au0.978In0.022,0.001
Li1,0.000
Rh1,0.000
La3.5Ba3.5Cu7O16.415,0.000
Tl2Ba2Cu1O6.164,0.000
Tl1Sr2Ca1Cu2O6.88,0.000
Gd0.6Pr0.4Ba2Cu3O6.6,0.000
Gd0.7Pr0.3Ba2Cu3O6.5,0.000
Y0.97Ca0.03Ba2Cu3O6,0.000
Y0.88Ca0.12Ba2Cu3O6,0.000
Y0.77Ca0.23Ba2Cu3O6,0.000
K0.92Bi1.08O3,0.000
La1.85Sr0.15Cu0.98Fe0.02O4,0.000
Nd1.85Ce0.15Cu1O4.045,0.000
Y1Ba2Cu2.58Co0.42O7.019,0.000
Fe0.5Ba2Nd1Cu2.5O7.54,0.000
La1.94Ce0.06Cu1O4,0.000
Y1Ni1Co1B2C1,0.000
Y1In2.73Sn0.27,0.000
Er1Ni1.93Fe0.07B2C1,0.000
Er1Ni1.88Fe0.12B2C1,0.000
Tm1Ni1.8Fe0.2B2C1,0.000
B2Nb1,0.000
B1.92Nb0.86,0.000
Fe1.03Se0.45Te0.55,0.000
Na1Fe0.9Co0.1As1,0.000
Ba1Fe1.98Pt0.02As2,0.000
Ba0.5K0.5Fe1.84Mn0.16As2,0.000
Ba1Fe1.5Ru0.5As2,0.000
Ba1Fe0.75Ru1.25As2,0.000
Ba1Fe2As2,0.000
Ba1Fe2As1.72P0.28,0.000
Gd1Fe0.95Ir0.05As1O1,0.000
Gd1Fe0.67Ir0.33As1O1,0.000
La1Ru2.91Fe0.09Si2,0.000
Ca10Pt3.33Fe9.67As18,0.000
Sm1Fe0.92Mn0.08As1F0.12O0.88,0.000
Sm1Fe0.9Mn0.1As1F0.12O0.88,0.000
Pr0.65Sr0.35Fe1As0.9P0.1O1,0.000
Ca0.75La0.25Fe1As2,0.000
Ca0.81Ce0.19Fe1As2,0.000
Li0.8Fe1.2Se0.1S0.9H1O1,0.000
Li0.8Fe1.2S0.41H1O1,0.000
La1Fe0.973Zn0.027As1F0.08O0.9,0.000
Ce1Fe0.69Co0.31As1H1,0.000
Sm1Fe1As0.47P0.53H0.15O0.85,0.000
La1Fe1As0.9P0.1O1,0.000
La1Fe1As0.8P0.2O1,0.000
La1Fe1As0.5P0.5O1,0.000
Fe1Te1,0.000
Ce1Fe1As1F0.06O0.94,0.000
La1Fe1As1H0.45O0.55,0.000
Ce1Co0.75Ni0.25In5,0.000
Na1Fe0.99Co0.01As1,0.000
Ta1Se0.6Te1.4,0.000
Ca1Fe1.94Rh0.06As2,0.000
Ca1K1Fe3.748Ni0.252As4,0.000
Ca4Al2Fe2As1.2P0.8O6,0.000
Ca4Al2Fe2As1P1O6,0.000
Ca4Al2Fe2As0.5P1.5O6,0.000
Ca4Al2Fe2As0.1P1.9O6,0.000
Ce0.82Sm0.18Co1In5,0.000
Ce1F0.5Bi1S2O0.5,0.000
Ce0.8Nd0.2F0.5Bi1S2O0.5,0.000
Tb2Cu0.83Pd0.17O4,0.000
Sr1Ti1O3,0.000
La1F0.5Bi0.4S2Sb0.2O0.5,0.000
Zr2Ti2Sb2H1,0.000
Zr2Ti2Bi2H1,0.000
Ba1Mn1Ru1As2,0.000
Ba1Mn1Bi2,0.000
La1Co2Si2,0.000
Gd1Co2B2,0.000
Y3Ni1Si3,0.000
Zr1Ni0.75As1,0.000
Cu2As1,0.000
Ba1Cu2As2,0.000
Hf1Cu2P2,0.000
Ba1Zn1Bi2,0.000
La1Rh1B1N1,0.000
Nb1Ge1As1,0.000
Ce2O2Sb1,0.000
Zn1B2,0.000
Ca1Sr1Si4,0.000
Ba1Rh2Ge4S6,0.000
Cr2Hf1,0.000
Sm1Ni1As1,0.000
Ca1Os1O3,0.000
Sr1Cr2O4,0.000
Zr2N2S1,0.000
Mn2Cr1N1,0.000
Rh1N1Cr3,0.000
Ca2Zn1Os1O6,0.000
Sr2Co1Os1O6,0.000
Sr1Cr1O2H1,0.000
Sr1Mo1O2.5N0.5,0.000
Mn1O2,0.000
Ba1Sc1O2H1,0.000
La1Si1O3H1,0.000
Ba1Cr2O4,0.000
Ce1Cu3Cr4O12,0.000
K1Os1O3,0.000
Bi2Os1O6,0.000
La3Hf1Bi5,0.000
Ba1Pd1Si1,0.000
Sr1Fe1As1H1,0.000
La1Fe0.5Sb2,0.000
Zr1Ti1Bi1,0.000
Zr1Ti1Sb1,0.000
La1Cr1As1O1,0.000
Ce1Cr1As1O1,0.000
Pr1Cr1As1O1,0.000
Sm1Cr1As1O1,0.000
Nd1Cr1As1O1,0.000
Ca1Mn1Bi2,0.000
Ba1Mn1Fe1As2,0.000
La1Mn2Si2,0.000
Ba1Co2Ge2,0.000
La1Ni1As1,0.000
K1Ni2Se2,0.000
Ba2Cu3P4,0.000
Gd1Cu1.25P1.75,0.000
Ta1Ge1As1,0.000
La1Ag1Bi2,0.000
Ce1Ag1Bi2,0.000
Gd2O2Bi1,0.000
Sr1Au1P1,0.000
Ta5Si3,0.000
Sr1Ni1Si3,0.000
Ba1Rh2Ge4Se6,0.000
Cr1Ta1N1,0.000
Sr1Os1O3,0.000
La1Sr1Mn1O3H1,0.000
Sr2Ti1O3F2,0.000
Hf2N2S1,0.000
Mn3Zn1N1,0.000
Sr3Os1O6,0.000
Ba2Y1Sc1Os1O6,0.000
Ba1Bi1S3,0.000
Ca2Cr1O4,0.000
Y1Ca1Cr1O4,0.000
Na32Si136,0.000
Pt1Sb2,0.000
Ti3O4.9N0.1,0.000
Na1Ti2O4,0.000
Sr1Cu3Cr4O12,0.000
Lu1Cu3Cr4O12,0.000
La1Cu3Ru4O12,0.000
Ca3Li1Os1O6,0.000
Pb2Os2O7,0.000
La3Ti1Bi5,0.000
Zr1Ti1As1,0.000
Sr1Cr1As1F1,0.000
Sr1Mn1As1F1,0.000
Mg1Ni1Ge1,0.000
La3Ni1Si3,0.000
Ba1Cu6As2,0.000
Zr1Cu2P2,0.000
Hf1Cu1Si2,0.000
Sr2F2Ti2Bi2O1,0.000
P1Ca10Ir4As10Fe10,0.000
Eu1Cr1As1F1,0.000
Ba1Mn1As1F1,0.000
Ba1Mn2As2,0.000
Y1Co2Ge2,0.000
La1Co2Ge2,0.000
Ca2Cu6P5,0.000
Y1Cu1Sb2,0.000
Zr1Cu2As2,0.000
Hf1Cu1Ge2,0.000
La1Ir1B1N1,0.000
Ba1Ni1Sn3,0.000
Ce2O2Bi1,0.000
Er2O2Bi1,0.000
Sr1Au1Si1,0.000
V5Ge3,0.000
Ta5Ir3O1,0.000
Ba1Ir2Ge4S6,0.000
Cr2N1,0.000
Ba1Os1O3,0.000
Ca1Cu3Cr4O12,0.000
Sr2Li1Os1O6,0.000
Ti4O6.99N0.01,0.000
Ba1Cu3Cr4O12,0.000
Eu1Cu3Cr4O12,0.000
Cd1Rh2O4,0.000
Ca2Os2O7,0.000
Pb2Ir2O7,0.000
La1Fe1Si1F1,0.000
Hf1Co2Si2,0.000
Ti1Si1As1,0.000
Mg2Pt1Si1,0.000
V5P3,0.000
Yb1Ga0.9Si1.1,0.000
Ti1O1Cl1,0.000
Zr2N2O1,0.000
Mn3Al1C1,0.000
Ca3Os1O6,0.000
Sr2Y1Os1O6,0.000
Sr1Ge1O3,0.000
Ti3N4,0.000
Na1Cr2O4,0.000
La3Ti1Sb5,0.000
Eu1Mn1As1F1,0.000
La1Co0.6Sb2,0.000
Ba1Cu1.8As2,0.000
Y1Cu1As2,0.000
Zr1Cu1Si1As1,0.000
La2O2Te1,0.000
Ba1Ir2Ge4Se6,0.000
Cu1N1C1,0.000
Ca1Ru1O3,0.000
Ca1Rh1O3,0.000
Sr2Mn1Os1O6,0.000
Ir1Sb2,0.000
Y1Cu3Cr4O12,0.000
Bi1Cu3Cr4O12,0.000
Ca5Os2O12,0.000
Zr2Ti2As2H1,0.000
Hf1Co2Ge2,0.000
Mn1B2,0.000
Cr1O1Cl1,0.000
Mn3Sn1C1,0.000
Ca2Mn1Os1O6,0.000
Sr2Pb1Os1O6,0.000
Zr3N4,0.000
Cr3O1,0.000
Zr1Ni0.75P1,0.000
Ca3Cr2O7,0.000
Ba3C60,0.000
Zr5Pb4,0.000
Ca2Fe1Os1O6,0.000
Na1Ir1O3,0.000
Ge1O2,0.000
Sr3Co2O6,0.000
Li1Os1O3,0.000
Rh3Ge7,0.000
Mg1Fe1As1H1,0.000
Ba1Fe1As1H1,0.000
Eu1Fe1As1H1,0.000
Mg1Fe1P1H1,0.000
Ca1Fe1P1H1,0.000
La1Fe1O1Sb1,0.000
Ca1Fe1O1Se1,0.000
Sr1Fe1O1Se1,0.000
K1Fe1Se1F1,0.000
Y1Fe1,0.000
Ba1Fe2Sb2,0.000
Ba1Fe2Se2,0.000
Zr1Fe1Si2,0.000
Zr1Fe2B2,0.000
Mg1Fe2As2,0.000
Cd1Fe2As2,0.000
Y1Fe2B2,0.000
Ca10Pt5.8Fe8.2Sb18,0.000
Ba2In1O3Fe1As1,0.000
Sr2In1O3Fe1As1,0.000
Sr2Fe1O1As1,0.000
Ba1Fe1O3As1,0.000
Sr4V2O5Fe2As2,0.000
Bi2Sr1Fe2O4Se2,0.000
La3O2Fe4As4,0.000
Ca3F2Fe4As4,0.000
Ag1Fe1As1,0.000
Ca1Fe4As3,0.000
Ca1Fe3Ag1As3,0.000
Ca1Fe3Cu1As3,0.000
Ca1Fe3Li1As3,0.000
La3O4Fe4As3,0.000
La3O4Fe4As5,0.000
Sr3Fe2Cu2Se2O5,0.000
Sr2.6K0.4Fe2Cu2Se2O5,0.000
La3O4Fe4As4,0.000
Ca3Fe4As4F3,0.000
Na1Fe2O4,0.000
Ba1Fe2Se2O1,0.000
Sr1Ti2As2O1,0.000
Eu1Ti2As2O1,0.000
Ba1Ti2Sb2O1,0.000
Ba1V2Ge2O1,0.000
Ba1V2Sn2O1,0.000
Ca1Mn2As2,0.000
Ca1Mn2Sb2,0.000
Ba1Mn1Co1As2,0.000
Ba1Mn1Rh1As2,0.000
Ba1Mn1Ir1As2,0.000
La2O1Mn2Te2,0.000
Ba1Mn2Se2O1,0.000
Zr1Co2Si2,0.000
Ca1Ni1As1H1,0.000
Zr1Ni2Si2,0.000
Rh1Ni1P1,0.000
Cu2Sb1,0.000
Mg1Cu1As1,0.000
Ce1Cu1P1O1,0.000
Bi1O1Cu1S1,0.000
La3Ru2B2N3,0.000
La1Ru1B1N1,0.000
Sr1Ga2,0.000
Ba1Ga2,0.000
La2O2Sb1,0.000
Ce1Ag1Sb2,0.000
Y2O2Bi1,0.000
La2O2Bi1,0.000
Pr2O2Bi1,0.000
Nd2O2Bi1,0.000
Sm2O2Bi1,0.000
Eu2O2Bi1,0.000
Yb2O2Bi1,0.000
La5Si3,0.000
Sr1Pd1As1,0.000
Sr1Pt1Sb1,0.000
Ba1Pt1Sb1,0.000
Y1Pt1As1,0.000
La1Pt1Sb1,0.000
Mg1Ag1As1,0.000
Sr1Co1P1,0.000
Sr1Ni1P1,0.000
Sr1Cu1P1,0.000
Sr1Pd1P1,0.000
Sr1Ag1P1,0.000
Sr1Ir1P1,0.000
Sr1Au1Sn1,0.000
Sr1Pt1Sn1,0.000
Sr1Au1Sb1,0.000
Ca1Au1P1,0.000
V56P3,0.000
V5As3N1,0.000
Nb5Si3,0.000
Zr5Pb3,0.000
Li1Mg4Si3,0.000
Na1Mg4Si3,0.000
Sr1Mg4Si3,0.000
Ba1Mg4Si3,0.000
Y1Mg4Si3,0.000
Ba1Ge3Mg4,0.000
Cr1B2,0.000
Ca1Cu1Si1,0.000
Lu2Al1Si2,0.000
Ba3Ga0.7Si4.3,0.000
La1Fe4Bi12,0.000
La1Co4Bi12,0.000
La1Ni4Bi12,0.000
La1Ru4Bi12,0.000
La1Rh4Bi12,0.000
La1Pd4Bi12,0.000
La1Ir4Bi12,0.000
La1Pt4Bi12,0.000
Nb1Cr1N1,0.000
Ti1N1F1,0.000
Ti2Sb1P1,0.000
Zr2Sb1P1,0.000
Cr2Ti1,0.000
Cr2Zr1,0.000
Ni1Te2,0.000
Na1Ni1F3,0.000
Zr1As1,0.000
La3Ni2O7,0.000
Bi2W1O6,0.000
Fe1O1C1I1,0.000
V1O1Cl1,0.000
Ti2N2S1,0.000
Ti2N2O1,0.000
Cs1La1Te2O5Cl1,0.000
Mn3Al1N1,0.000
Al1Ni3C1,0.000
Ca3Si1O1,0.000
Ca3Sn1O1,0.000
Ca2Pb1O1,0.000
Sr1Ag3P1,0.000
Sr1Ir3P1,0.000
Sr1Au3P1,0.000
Mg2C1Ni4,0.000
Ca4O1Sb2,0.000
Ca2Co1Os1O6,0.000
Ca1Zn1Os1O6,0.000
Sr2Fe1Os1O6,0.000
Sr1Co1Os1O6,0.000
Sr2Ni1Os1O6,0.000
Sr2Dy1Os1O6,0.000
Sr4Fe1Mo1O8,0.000
Sr1Mo1O2.5Na0.5,0.000
Sr1Nb1O2N1,0.000
La1Ba1Mn2O6,0.000
Y1Ba1Mn2O6,0.000
Bi2Y1Cu2O4Se2,0.000
Sr2Cr1O4,0.000
Bi2Sr1Cu2O4Se2,0.000
Ca1Cr1O4,0.000
Sr3Fe1Ni1Cu2Se2O5,0.000
Sr1La2Cu4Se2O5,0.000
Sr3Cr207,0.000
Sr3Ni2Cu2Se205,0.000
Ca3Cr207,0.000
Sr3Cu4Se2O5,0.000
La1Sr1Ti1O4,0.000
Ca3Ni12B6,0.000
Sr3Ni12B6,0.000
K1C24,0.000
Mg2C60,0.000
Ca1C2,0.000
Ba1C2,0.000
Y1C2,0.000
Hf3N4,0.000
N1Cr1,0.000
Sc4Ti3O12,0.000
Ca1V2O5,0.000
Li1V2O4,0.000
Ca1Cr2O4,0.000
Ba1Cu1Cr4O12,0.000
La1Cu3Cr4O12,0.000
Ag2Mn1O2,0.000
Li1Mn2O4,0.000
Sr2Nb1O3N1,0.000
La1Ru2O10,0.000
Bi3Ru3O11,0.000
Sr3Ru2O7C12,0.000
Sr2Ru1O7F2,0.000
Ba1Sb1O3,0.000
Cs1W2O6,0.000
Sr1W1O2N1,0.000
Ba2Os1O5,0.000
Bi1Os1O6,0.000
Ag2Bi1O3,0.000
K1Mo3S3,0.000
Sr1Pt3S1,0.000
Ba1Pt3S1,0.000
In1V6Se8,0.000
Sn1Te1,0.000
Co1P1,0.000
Ni1P1,0.000
Ba1Ni2P4,0.000
Ba1Pd2P4,0.000
Sr1Pt3Sb1,0.000
Ba1Pt3Sb1,0.000
La3V1Sb5,0.000
La3Cr1Sb5,0.000
La3Mn1Sb5,0.000
La3V1Bi5,0.000
La3Cr1Bi5,0.000
Fe3Al2Si4,0.000
Mg1Al2Si2,0.000
Mg4Al1Si6,0.000
Mg1.3Ga0.7Si1,0.000
Ba1Mg2Si2,0.000
Ti2Ru3Si4,0.000
Sr1Pd1Si1,0.000
Ba1Mg2Ge2,0.000
Ba1Mg2Sn2,0.000
Ba1Mg2Pb2,0.000
Cs1Sn1I3,0.000
La2Te1I2,0.000
Zr1Mn2,0.000