formula,Tc
Hg1.4Tl0.6Ba2Y0.7Ca0.3Cu2O7.81,60
Bi8Sr5Ca7Cu9O34.94,60
Y1Ba2Cu2.88Ni0.12O7,60
Gd0.9Pr0.1Ba2Cu3O6.95,60
Bi8Sr6Ca6Cu9O34,60
La1.25Ca0.35Ba1.4Cu3O7.108,60
Y1Ba1.98La0.02Cu4O8,60
Bi2Sr2Ca1Cu1.99Fe0.01O8,60
Y1Ba2Cu2.91Ti0.09O6.9,60
Y1Ba2Cu2.82Fe0.18O7,59.9
Bi2Sr2Ca0.65Y0.35Cu2O8.3,59.9
Y1Ba2Cu4O8,59.8
Ho1Ba2Cu4O8,59.8
Pb0.8Sr1Ba1.2Y0.7Ca0.3Cu3O8.28,59.8
Nd1Ba1Sr1Cu3O6.94,59.7
Bi0.33Hg0.67Sr2Y1Cu2O7,59.7
Y1Ba2Cu3O6.883,59.7
Y0.9Ca0.1Ba2Cu2.9Ni0.1O6.86,59.6
Hg0.8Mo0.2Ba2Cu1O4.4,59.53
Dy1Ba2Cu4O8,59.4
Y1Ba2Cu4O8,59.4
La2.25Ca1.5Ba2.25Cu6O13.93,59.4
La2.7Ca0.6Ba2.7Cu6O14.186,59.3
Y1Ba2Cu3.98Ni0.02O8,59.2
Y1Ba2Cu3.992Zn0.008O8,59.2
La2.7Gd0.4Ca0.8Ba3.1Cu7O16.537,59.2
Ba1.6Sr0.4Yb0.75Ca0.25Cu3O6.68,59.1
La5.8Y0.4Ca0.8Ba3.1Cu7O16.548,59.1
Cu3P0.5Sr2Ca1.8Y0.2O9.45,59.1
La1.05Ba1.5Ca0.45Cu3O6.81,59.1
La1Ba1.4Ca0.6Cu3O6.9,59
La1Ba1.2Ca0.8Cu3O6.95,59
Gd1Ba2Cu4O8,59
Eu1Ba2Cu4O8,59
Pb2Sr2Eu0.75Ca0.25Cu3O8.1,59
Y0.8Pr0.2Ba2Cu4O7.95,59
Bi2Sr2Ca1Cu2O8.197,59
Tl1Sr2Ca0.4Pr0.6Cu2O7,59
Hg1Ba2Cu1O4.12,59
La1.5Ba1Ca0.5Cu3O7.195,59
Y1Ba0.75Sr1.25Cu3O6.94,59
Bi2Sr2Ca1Cu1.952Ni0.048O8,59
Bi2Sr2Ca1Cu2O8,59
La1Ba2Cu3O6.95,59
Y0.9Ga0.1Ba2Cu4O8,58.9
Y1Ba2Cu2.95Zn0.05O6.94,58.9
Bi2Sr2Ca1Cu2O8.242,58.9
Y1Ba1Sr1Cu2.95Sn0.05O6.96,58.8
Y0.8Ca0.2Ba2Cu3O6.9,58.8
Ca0.9Nd0.1Ba1La1Cu3O6.87,58.7
Ca0.8Nd0.2Ba1La1Cu3O6.99,58.7
Ca0.7Nd0.3Ba1La1Cu3O7.04,58.7
Bi2Sr1.8Ca1.2Cu2O8.211,58.5
Y1Ba1Sr1Cu2.95Sn0.05O6.96,58.5
Y1Ba2Cu3O6.7,58.5
Er0.75Ca0.1Hf0.15Ba2Cu3O6.796,58.5
Dy1Ba2Cu4O8,58.45
Y1Ba2Cu3O6.73,58.4
Dy1Ba2Cu4O8,58.3
Bi8Sr8Ca4Cu9O34.25,58.3
Bi1.9Pb0.1Sr2Ca1Cu2O8.2,58.2
Lu0.7Pr0.3Ba2Cu3O7,58
Y1Ba2Cu3.88Ga0.12O8,58
Gd1Sr0.1Ba1.9Cu4O8,58
Yb0.7Pr0.3Ba2Cu3O6.97,58
Hg1Ba2Cu1O4.05,58
Y1Ba1.76La0.24Cu3O7.024,58
Gd1Ba2Cu4O8,58
Y0.7Pr0.2Ca0.1Ba2Cu4O8,58
Y0.8Pr0.2Ba2Cu3O6.95,58
Y1Ba2Cu3.98Co0.02O8,58
Y1Ba2Cu3.99Zn0.01O8,58
Bi1.6Pb0.4Sr2Ca2Cu3O10.24,58
Pb2Sr2Ho0.5Ca0.5Cu3O8,58
Y1Ba2Cu3O6.8,58
Y0.8Pr0.2Ba2Cu3O7,58
Sr2Nd0.3Ca0.7Cu2F1O5,58
Gd1Sr1.8Ba0.2Cu4O8,58
Y1Ba2Cu2.7Al0.3O6.99,58
Y1Ba2Cu2.9Co0.1O6.82,58
Y1Ba2Cu2.7Ni0.3O6.88,58
Bi0.7Pb0.3Sr1Ca1Cu1.8O6,58
Bi1.7Pb0.3Sr2Ca0.7Y0.3Cu2O8.26,58
Bi2Sr1.5Ca1.5Cu2O8.22,57.9
Y1Ba2Cu2.85Ni0.15O6.9,57.9
Sm1Ba2Cu3O7,57.9
Bi2Sr2Ca0.8Pr0.2Cu2O8,57.9
Bi2Sr2Ca0.8Gd0.2Cu2O8,57.85
Y1Sr2Cu2.85Re0.15O7.1,57.8
Bi2Sr2Ca1Cu2O8.212,57.7
Tl1Sr2Ca1Cu2O7,57.7
Hg0.9Ba2Cu1O4,57.7
Y1Ba2Cu2.94Fe0.06O7,57.7
Y0.7Ca0.3Ba1.3La0.7Cu3O7.16,57.7
Nd1Ba1.8Ca0.2Cu3O6.866,57.6
Ca2Sr2Cu3Ga1O9,57.6
Er1Ba2Cu2.94Co0.06O6.8,57.5
Ge0.5Cu3Sr2Ca1.7Y0.3O9.3,57.5
Hg1Ba2Cu1O4.045,57.5
Y1Ba2Cu3O6.75,57.45
Pb2Sr2Y0.5Ca0.5Cu3F1.003O7.261,57.4
Ba1.6Sr0.4Yb0.65Ca0.35Cu3O6.45,57.4
Y1Ba2Cu3H0.1O6.765,57.4
La0.9Ba1.5Ca0.6Cu3O6.74,57.3
La1Ba1.3Ca0.7Cu3O6.92,57.2
Gd0.45Ca0.4Mo0.15Ba2Cu3O6.537,57.2
Y1Ba2Cu3.96Fe0.04O8,57.1
Pb2Sr2Eu0.8Ca0.2Cu3O8.1,57.1
Pb2Sr2Eu0.7Ca0.3Cu3O8.1,57
La1.3Yb0.6Ba1.3Ca1.2Cu5O11.74,57
Y0.8Ca0.2Ba1.5La0.5Cu3O7.13,57
Eu1Ba1.9Pr0.1Cu3O6.75,57
La0.8Ca0.2Ba1.5Sr0.5Cu3O6.794,57
Bi2.1Sr1.8Ca1Cu1.96Co0.04O8,57
V0.5Sr2.6Ca5.4Cu7.5O17.3,57
Tl0.5Pb0.5Sr2Ca1Cu2.95Zn0.05O7,57
Y0.6Ca0.2Pr0.2Ba2Cu3O6.95,57
Y1Ba2Cu4O8,57
Ca0.4Ba1.25La1.35Cu3O7.19,57
Y1Ba1.5Sr0.5Cu3O6.85,57
Y1Ba2Cu2.975Zn0.025O6.85,57
Eu1Ba2Cu2.9Co0.1O6.97,56.9
Y0.8Pr0.2Ba2Cu3O6.98,56.9
Bi8Sr6Ca6Cu9O33.85,56.8
Bi8Sr7Ca5Cu9O34.13,56.8
La1Ba1.75Sr0.25Cu3O6.946,56.7
Y1Ba2Cu3H0.2O6.795,56.7
Y0.95Ca0.05Ba2Cu2.95Co0.05O6.84,56.7
Y0.9Pr0.1Ba2Cu4O8,56.7
Hg0.5Fe0.5Sr2Y0.3Ca0.7Cu2O6.65,56.65
Y0.85Pr0.15Ba2Cu4O8,56.5
Y1La1Ba4Cu6O13.95,56.5
Bi2Sr2Ca1Cu2O8,56.5
I1Bi2Sr2Ca1Cu2O8,56.5
Er0.55Ca0.3Hf0.15Ba2Cu3O7.05,56.5
Y2Ba4Cu7O15,56.5
Y0.8Ca0.2Ba2Cu3O6.6,56.4
Y1Ba2Cu3Cl1O6,56.3
Y1Ba2Cu2.955Fe0.045O6.89,56.3
Bi1.7Pb0.3Sr2Ca0.7Y0.3Cu2O8.25,56.3
Y1Ba2Cu4Li0.031O8,56.25
Pb0.5Sr2Ca0.5Tm0.5Cu2.5O7,56.2
Y1Ba2Cu4O8,56.1
Al1Sr2Ca2Cu3O9.7,56.1
Y0.9Ca0.1Ba1.6La0.4Cu3O7.09,56
Nd0.9Ba1.7Ca0.4Cu3O6.801,56
Y1Ba2Cu4O8,56
Pb2Sr2Y0.5Ca0.5Cu3F0.561O7.649,56
Y0.95Ca0.05Ba2Cu3O6.7,56
Nd0.8Ca0.2Ba0.6La0.4Cu3O6.72,56
Cu3P0.5Sr2Ca1.8Y0.2O9.25,56
Cu3P0.5Sr2Ca1.8Y0.2O9.35,56
La1.65Ba1.5Ca0.35Cu3O6.79,56
La1.1Ba1.5Ca0.4Cu3O6.82,56
Hg1Ba2Cu1O4.02,56
La1Ba1.5Ca0.5Cu3O7.112,56
Ca5.84Sr4.02Bi0.14Cu15.84O29,56
Er1Ba2Cu2.82Fe0.18O6.97,56
Hg1Ba2Cu1O4.043,56
La2.3Gd0.7Ca1Ba2.8Sr0.2Cu6.86In0.14O16.536,56
Fe0.5Ba2Gd1Cu2.5O7.45,56
Fe0.5Ba2Er1Cu2.5O7.46,56
Fe0.5Ba2Yb1Cu2.5O7.45,56
Sr2Ca3Cu4F2O8.8,55.87
Lu1.8Ba0.2Cu1O4,55.8
Gd0.45Ca0.4Hf0.15Ba2Cu3O7.08,55.8
Bi2Sr2Ca1Cu2O8,55.7
Bi2Sr1.9Ca1.1Cu2O8.181,55.67
Gd1Ba2Cu4O8,55.6
Y1Ba2Cu2.76Ga0.24O7,55.6
Y0.8Pr0.2Ba2Cu3O6.82,55.55
Bi2Sr2Ca1Cu2I0.25O8.21,55.5
Y0.8Ca0.2Ba2Cu3O7,55.5
Bi2Sr2Ca1Cu2O8,55.5
Y1Ba2Cu2.76Ni0.24O7,55.5
Bi2Sr2Ca1Cu1.98Fe0.02O8,55.3
La3Ca0.7Cd0.3Ba3Cu7O16.459,55.3
Y1Ba2Cu3.84Ga0.16O8,55.3
Y1Ba2Cu3O6.7,55.3
Y1Ba2Cu3O6.773,55.3
Bi2Sr2Ca1Cu2O8.24,55.1
Y1Ba2Cu3.98Ni0.02O8,55
Y1.01Ba2.01Cu2.906Ni0.094O6.7,55
Y1Ba2Cu2.6Ni0.4O7,55
Bi1.7Pb0.3Sr2Ca0.7Y0.3Cu2O8.25,55
Dy1Ba2Cu4O8,55
Pb2Sr2Eu1Cu3O8,55
Y1Sr2Cu2.8Mo0.2O7.1,55
Y1Ba2Cu2.85Co0.15O6.92,55
Tl0.5Pb0.5Sr4Cu2C1O10,55
Pb1Sr2Y0.62Ca0.38Cu3O8,55
Nd0.9Ca0.1Ba1Sr1Cu3O6.85,55
Y0.9Ca0.1Ba2Cu3O6.7,55
Nd1Ba1.5Sr0.5Cu3O6.91,55
Hg1Ba2Cu1O4.12,55
La0.75Sm0.25Ba1Ca1Cu3O7,55
Cu4.5Sr2Ca3Cr0.5O11.45,55
La1Ba0.9Ca1.1Cu3O7.05,55
Pb2Sr2Eu0.85Ca0.15Cu3O8.1,55
Pb2Sr2Eu0.65Ca0.35Cu3O8.1,55
La1.65Er0.35Ba2Ca0.7Cu4.7O11.166,55
Y1Ba2Cu3F0.1O6.7,55
Tl0.5Pb0.5Sr4Cu2C1O7,55
Yb0.75Pr0.25Ba1.7Sr0.3Cu3O6.92,55
Y1Ba2Cu2.9Fe0.1O6.929,55
Hg1Ba2Cu1O4.06,55
La0.85Ca0.15Ba1.5Sr0.5Cu3O6.819,55
Y1Ba2Cu2.88Co0.12O7,55
Y1Ba2Cu2.94Zn0.06O6.96,55
Tl0.5Pb0.5Sr2Ca1Cu2.98Zn0.02O7,55
Gd0.96Ca0.04Ba1Sr1Cu3O6.914,55
Sr2Nd0.5Ca0.5Cu2F1O5,55
Y0.8Pr0.2Ba2Cu4O8,55
Nd0.8Ca0.1Pr0.1Ba2Cu3O7.02,55
Y0.975Ca0.025Ba2Cu3O6.72,55
Bi1.4Pb0.6Sr2Ca1.4Ga0.6Cu3O7,55
Pb0.5Cd0.5Sr2Y0.5Ca0.5Cu2O7,55
Y1Ba2Cu3.98Fe0.02O8,55
Eu1Ba2Cu4O8,55
Gd0.99Ca0.01Ba1Sr1Cu3O6.92,55
Y1La1.2Ba3.8Cu6O14.07,55
Y1Ba2Cu3.97Ni0.03O8,55
Y1Ba2Cu3.987Fe0.013O8,55
Hg0.92Ba2.05Cu1.03O4.087,54.9
Y1Ba2Cu3.8Ga0.2O8,54.9
Y0.8Pr0.2Ba2Cu4O8,54.9
Y1Ba2Cu2.955Zn0.045O7,54.9
Tl2Ba2Cu1O5.929,54.8
Bi2Sr2Ca1Cu2O8.23,54.8
Y2Ba4Cu7O14.78,54.8
Bi2Sr2Ca1Cu2O8.199,54.8
Bi2Sr2Ca0.8Y0.2Cu2O8,54.7
Pb0.5Sr2Ca0.5Er0.5Cu2.5O7,54.7
Tm1Ba1Sr1Cu3O6.94,54.7
Y1Ba2Cu3.987Fe0.013O8,54.6
Hg0.6Cr0.4Ba2Cu1O4.1,54.6
Y0.5Ca0.5Ba1.1La0.9Cu3O7.15,54.5
Nd1.1Ba1.7Sr0.2Cu3O6.858,54.5
Sr2Y1Cu3O7.65,54.5
Ga1Sr2Ca2Cu3O9,54.5
Ca1La1Ba1Cu3O7,54.4
Bi2Sr2Ca1Cu2O8.214,54.35
Sr2Cu1O3.1,54.3
Tl0.5Pb0.5Sr4Cu2C7O21,54.2
Tl0.5Pb0.5Sr4Cu2C0.7N0.3O7,54.2
Tl0.5Pb0.5Sr4Cu2C0.5N0.5O7,54.1
Bi2Sr2Ca1Cu2O8.218,54.1
Hg1Ba2Cu1O4.049,54.1
Pb0.5Tl0.5Sr4Cu2C0.7N0.3O10,54.1
Pb0.5Tl0.5Sr4Cu2C0.5N0.5O10,54.1
Sr2Cu1O3.1,54
Cu3P0.5Sr2Ca1.8Y0.2O9.35,54
La2.5Y0.5Ca1Ba3Cu6.72Fe0.28O16.592,54
Y0.7Ca0.3Ba2Cu2.7Co0.3O6.84,54
Y0.8Pr0.2Ba2Cu3O6.96,54
La1.25Ba1.5Ca0.25Cu3O6.74,54
Y1Ba2Cu3.92Fe0.08O8,54
La1.7Er0.3Ba2Ca0.6Cu4.6O10.92,54
La1.1Yb0.7Ba1.1Ca1.4Cu5O11.692,54
Bi2Sr2Ca1Cu2O8.23,54
Y0.95Ca0.05Ba2Cu3O6.7,54
Y1Ba2Cu3.985Zn0.015O7.95,54
Bi2Sr2Ca0.8Pr0.2Cu2O8.282,54
Y1Ba2Cu3O6.7,54
Tl1Sr2Ca0.6Pr0.4Cu2O7,54
Y1Ba2Cu2.88Ni0.12O7,54
Dy1Ba2Cu2.9Fe0.1O6.84,54
Sm1Ba2Cu2.96Zn0.04O6.83,54
Dy1Ba2Cu2.96Zn0.04O6.9,54
La1.1Ba1.5Ca0.4Cu3O6.97,54
La1.1Ba1.5Ca0.4Cu3O7.17,54
Hg1Ba2Cu1O4.19,53.9
Bi2Sr2Ca1.2Cu3.22O8,53.9
Y0.8Pr0.2Ba2Cu3O6.965,53.8
Y1Ba1.6La0.4Cu3O7.14,53.7
Y1Ba1.8Cu2.8Co0.2O7.05,53.7
Y1Ba1.95Cu2.95Co0.05O6.9,53.6
Y1Ba2Cu2.9Ni0.1O6.93,53.6
Y1Ba2Cu2.9Ni0.1O6.95,53.6
Bi2Sr2Ca1Cu2O8.213,53.6
Bi2Sr2Ca1Cu2O8.3,53.56
La1.5Nd0.5Ca1Ba2Cu4.85Mo0.15O11.322,53.5
La1.5Nd0.5Ca1Ba2Cu4.75Mo0.25O11.143,53.5
Ba2Ca3Cu4F2O8,53.5
Sr3Cu2Cl1O5,53.5
Ga4Mo1,53.5
Nb5Ir1.2Pt1.8O1,53.5
Tm1Ni1.96Fe0.04B2C1,53.2
Sr0.4Eu0.6Fe1.76Co0.24As2,53.1
Pr0.5La0.5Pt4Ge12,53.1
B2Nb0.7,53.1
Ir0.82Rh0.12Se2,53.1
Fe1Se0.82S0.18,53
Bi1In1,53
Bi0.1Pb0.9,53
Lu0.25Sc4.75Ir4Si10,53
Er1Rh3.6Ir0.4B4,53
Nb1,53
Sn0.36Eu0.7Mo6.35S8,53
Ca3Rh4Sn13,53
Lu2.5Sc2.5Ir4Si10,53
Nb0.738Ga0.160Co0.102,53
Mo0.874Zr0.036B2,53
La2.989Gd0.011In1,53
Pr1Pt4Ge12,53
La1Bi1S2F0.5O0.5,53
N0.99V1,53
Li2Pd2.85Ni0.15B1,53
La1.78Sr0.22Cu0.96Ni0.04O4,53
La0.5Th0.5Ni1C2,53
Mg0.7Al0.3B2,53
Tc0.6W0.4,53
Nb3Rh0.1Pt0.9,53
Ir1Nb1,53
Hf1Ta1C1,52.9
Ho0.85Dy0.15Ni2B2C1,52.8
Au0.2Nb0.8,52.8
Lu2.5Sc2.5Ir4Si10,52.8
Er1Th3.4Ru0.6B4,52.75
Pb0.4Yb0.6Mo6Se8,52.7
Y2I1Br1C2,52.7
Ca1Al1Si1,52.6
Mg1C1.5Ni3,52.6
Ir0.375Nb0.625,52.6
Nb3Rh0.1Pt0.9,52.5
V2Zr1,52.5
Gd0.02In1La2.98,52.5
La1.475Nd0.4Sr0.125Cu1O4,52.5
Pr1Pt4Ge12,52.5
Fe1Te0.8S0.2,52.5
Ca2.85Sr0.15Rh4Sn13,52.5
Pb0.9Bi2Te3.8,52.5
Ho0.85Dy0.15Ni2B2C1,52.4
Ca1Al1Si1,52.4
Bi1Sn1,52.3
Tc0.6W0.4,52.2
Lu0.25Sc4.75Ir4Si10,52.2
Pr0.7La0.3Pt4Ge12,52.2
Ta0.52Ti0.48,52.1
Ba0.5K0.5Fe1.7Zn0.3As2,52.1
La1Bi1S2F0.7O0.3,52
La1.84Sr0.16Cu0.97Zn0.03O4,52
Y0.6Th0.4Ni1C2,52
Ga1,52
Nb0.803Ta0.197,52
Mo1Re4,52
Nb0.153Ti0.831Ta0.016,52
Nb0.928O0.072,52
Fe1.06Se0.14Te0.83,52
Lu0.8Er0.2Ru1B2,52
Pr1Pt4Ge12,52
Pr0.9La0.1Pt4Ge12,52
Er0.9Tb0.1Ni2B2C1,52
La0.7Nd0.3Pt2.1B2.4C1.2,52
H0.05Nb0.95,52
V2Zr1,52
Pb0.95Sb0.05,52
B2Nb1,52
Fe1Se0.82,52
La1Fe1As0.7P0.3O1,52
Nb0.8Ta0.2,52
Y0.79Gd0.21Ni2B2C1,52
Nb2Sn1C1,52
Bi0.23Pb0.77,51.9
In0.8La3Sn0.2,51.8
La3Se4,51.8
Nb0.5Ti0.3V0.2,51.8
Nb0.22Ti0.8,51.7
P1Pb1,51.7
V0.4Zr0.6,51.6
V3Si0.52Ga0.48,51.6
V2.778La0.222Ga1,51.5
Nb0.743Sn0.014Al0.060Ge0.183,51.5
C1Hf0.8Nb0.8,51.5
Ti0.516V0.484,51.5
Ti0.516V0.484,51.4
Ho1Ni2B2C1,51.4
Y1Ru1B2,51.4
Er1Rh4B4,51.2
Ca1Al1Si1,51.2
Y1Ru1B2,51.1
Y1Ru1B2,51
La3In0.8Sn0.2,51
Nb5Si2.4B0.6,51
Ca1Al1Si1,51
Re3W1,51
La1Ru3Si2,51
Pb7Bi3,51
Pr2Pt3Ge5,51
Pr1Pt4Ge12,51
La1Fe1P1F0.03O0.97,51
La1Fe1P1F0.08O0.92,51
Sr1Pt3P0.8Si0.2,51
Ba1Fe1.935Ni0.065As2,51
Tc1,51
Nb0.745Ga0.223Mn0.032,51
Ti0.64Nb0.1Ta0.26,50.8
Sr0.065Bi2Se3,50.7
Pr0.95Eu0.05Pt4Ge12,50.7
Tc1,50.7
Nb1Se2,50.6
Ho1Ni2B2C1,50.6
Ag1Mo4S5,50.6
Ag1Mo4S5,50.5
Pr1Pt4Ge12,50.5
Y1Ni1.86Co0.14B2C1,50.4
Ba0.91La0.09Fe2As2,50.4
Ca3Rh4Sn13,50.4
Ca2.7Sr0.3Rh4Sn13,50.4
Hf0.36Nb0.62Zr0.02,50.3
Pb0.36Sn0.64,50.3
Li2Pd3B0.95Al0.05,50.2
Fe1Se1,50.1
Lu2Ir3Si4.9Ge0.1,50.1
Ba0.832K0.168Fe2As2,50.1
Ba1Fe2As0.74P1.26,50.1
La1Fe1As0.6P0.4O1,50.1
Ca2.8Co0.2Rh4Sn13,50.1
Tc1,50.1
La1.83Sr0.17Cu0.96Ni0.04O4,50.08
Li2Pd2.94Ni0.06B1,50.03
Ca1Al1Si1,50
La0.6Th0.4Ni1C2,50
Ag1Mo4S5,50
Bi0.07Pb0.93,50
O3Rb0.33W1,50
C1Mo1,50
C1Mo0.5Ta0.5,50
Nb0.194Ti0.451Zr0.355,50
Nb0.181Ti0.561Zr0.258,50
Nb0.155Ti0.782Zr0.063,50
Nb0.147V0.054Ti0.799,50
V0.487Ti0.508Zr0.005,50
Tm1Ni1.96Co0.08B2C1,50
Ag1Mo6S8,50
Yb3Rh4Sn13,50
Y0.75Pr0.25Ni2B2C1,50
La2.916Pr0.084Tl1,50
V2Zr1,50
Ta0.455Zr0.545,50
Y1Ru1B2,50
Hg0.44Re1O3,50
Si1,50
Nb4Ni1Si1,50
Li2Pd2.4Ni0.6B1,50
Mg1C1Ni3,50
Nb0.35Ti0.65,50
Lu3.5Sc1.5Ir4Si10,50
Ca3Ir4Sn13,50
Lu1Sc4Ir4Si10,50
Li1Fe0.925Co0.075As1,50
Ba7Ca1Si46,50
Th1Co0.8Ni0.2C2,50
Ca2.7Sr0.3Rh4Sn13,50
Mg1Co1Ni3,50
Mo0.96Ru0.04Ga4,50
Mo0.05Nb0.95,50
La3Se4,50
Mo0.454Re0.546,50
Ce1Bi1S2F0.5O0.5,50
Pr0.9Eu0.1Pt4Ge12,50
Ca10Pt3.02As18Fe9.98,50
Li2B1Pd3,50
Er0.95Gd0.05Rh4B4,50
Ir0.85Rh0.09Se2,50
Ba1Pb0.83Bi0.17O3,50
La1.8Sr0.2Cu0.96Ni0.04O4,50
Ca0.4Ba1.15La1.45Cu3O7.12,50
Li2Pd3B1,50
Ho0.75Y0.25Ni2B2C1,50
La0.4Th0.6Ni1C2,49.9
Hf1V2,49.9
C0.6Mo4.8Si0.3,49.9
Ga1,49.8
In1Nb3,49.7
Mo0.2Nb0.2Re0.6,49.6
Nb0.97Tc0.03,49.6
Nb0.4Ti0.4V0.2,49.5
Nb0.1Zr0.9,49.5
Tc2Zr1,49.5
Ti0.17V0.5Zr0.33,49.4
Nb3Sn0.39Ge0.61,49.35
C0.6Mo4.8Si3,49.3
Cu3.2Mo6S8,49.3
Ho1Ni2B2C1,49.3
Au0.22Nb0.78,49.25
Nb2S2C1,49.1
La1Ru3Si2,49
V0.75Ge0.237Al0.013,49
La1Ru3.5Si2,49
La3Se4,49
H15Th4,49
Y1Ru1B2,49
Zr1Ru1P1,49
Fe1Se0.92,49
La1Fe1As0.9P0.1H0.25O0.75,49
Ca2.55Sr0.45Rh4Sn13,49
Nb1Rh2B2,49
Li2Pd2.85Ni0.15B1,49
Zr1.75Sc0.25P1.25Se0.75,49
B2Nb0.5,49
Co0.046Ga0.197V0.757,49
Er1Rh2.4Ir1.6B4,49
Nb0.148Ti0.849Ta0.003,49
La2.91Pr0.09Tl1,49
La0.6Th0.4Pt4Ge12,48.9
B6Y1,48.9
Lu0.574Dy0.426Ni2B2C1,48.9
Ba1Fe1.83Zn0.08Co0.09As2,48.9
Sr1Pt2.7Pd0.3P1,48.7
Ta0.36Ti0.64,48.7
Lu0.9Ho0.1Ru1B2,48.6
Na1Fe0.92Co0.08As1,48.6
Ti0.42V0.58,48.5
Tc0.5W0.5,48.5
La1Fe1As0.25P0.75O1,48.5
Si0.2V0.8,48.5
Mo0.922Zr0.038B2,48.35
Ta0.8Zr0.2B1,48.3
Cs1Sr1Bi0.25Pb0.75O3,48.3
Eu1.85Ce0.15Cu1O4,48.2
La1.475Nd0.4Ba0.125Cu1O4,48.1
Eu1.85Ce0.15Cu1O4,48.05
Pr0.74Gd1.11Ce0.15Cu1O4,48
Bi2Sr2Cu1O6,48
Li2Pd3B1,48
Li2Pd2.85Ni0.15B1,48
N1V1,48
La1Fe1P1F0.06O0.94,48
Cd0.18Pb0.32Sn0.5,48
Nb0.8Sn0.2,48
O1V3Zr3,48
Pd0.1Zr0.9,48
Ru1W1,48
Zr3V3O1,48
V2.67Pd0.33Si1,48
V2.79Ce0.21Ga1,48
C1Mo0.2Ta0.8,48
C1Nb1,48
Nb0.151Ti0.819Zr0.031,48
Hf1Nb1C1,48
Nb0.226Ti0.175Zr0.598,48
Nb0.209Ti0.324Zr0.467,48
Nb0.005V0.487Ti0.508,48
Lu0.6Dy0.4Ni2B2C1,48
Ho1Ni2B2C1,48
Lu1Ni1.89Co0.22B2C1,47.9
Ba8Ga16Ge30,47.8
Ho1Ni2B2C1,47.7
Mg0.6Zn0.2Al0.2B2,47.6
La1Ru3Si2,47.6
Ti0.6V0.4,47.6
B6Y6,47.5
Mo2B1C1,47.5
Mo3Sb7,47.5
Nb2In1C1,47.5
Ir1Zr2,47.5
Ba1Fe1.856Ni0.144As2,47.5
Sm1Fe0.96Ni0.04As1O1,47.4
B6Y1,47.3
La0.99Y0.01Fe0.995Mn0.005As1F0.11O0.89,47.3
Sr1Pt3P0.6Si0.4,47.3
Ba8Si46,47.2
Ca2.25Sr0.75Rh4Sn13,47.2
W3Al2C1,47.2
Nd0.8Sr0.2Ni1O2,47.2
Fe1Se0.85S0.15,47.1
Ti0.415V0.585,47.02
Ca10Pt3.981Fe9.019As18,47
Li2Pd3B0.9Al0.1,47
Ir0.19Rh0.75Se2,47
Tc1,47
Ti0.2V0.8,47
Li2Pd3B1,47
Pr1Fe0.9Co0.1As0.5P0.5O1,47
Ti0.4V0.6,47
B2.5Mo1,47
In0.5Sn0.5,47
Pb0.57Sn0.43,47
Re0.88Mo0.12,47
Y0.7Th0.3Ni1C2,47
Ho0.97La0.03Ni2B2C1,47
Zr1Os1P1,47
Nb0.720Ga0.234Mn0.047,47
Mg1C1Ni2.95Co0.05,47
Nb0.8Ta0.2,47
Pr0.95Eu0.05Pt4Ge12,47
Nb5Ir1Pt2O1,47
La1.86Ba0.14Cu1O4,47
K0.85Bi1.15O3,47
C2Mo3,47
Fe0.04Nb0.1Ti0.86,47
Nb0.25Ti0.75,47
Re6Zr1,47
V3Si0.46Ga0.54,47
V1.5Nb1.5Sb1,47
Nb3Rh0.3Pt0.7,47
Re6Zr1,46.9
Nb0.147Ti0.847Zr0.006,46.8
Nb0.027V0.497Ti0.476,46.8
Nb0.141Ti0.856Ta0.003,46.7
Nb0.151Ti0.820Mo0.029,46.5
Nb3Al0.15Ge0.85,46.5
Y0.78Gd0.22Ni2B2C1,46.4
Mg1C1.25Ni3,46.4
Te1,46.4
C1,46.4
Mo0.7Pt0.075Re0.225,46.18
Mo0.65Pt0.1Re0.25,46.1
Er1Ni1.96Fe0.04B2C0.99,46
Nb3Rh0.3Pt0.7,46
Er1Pb2,46
Li2Pd2.7Ni0.3B1,46
Ba1Fe1.945Ni0.055As2,46
La1Fe1P1O1,46
Sr1Fe1.8Ni0.2As2,46
Nb1Se2,46
Ba1Fe1.924Co0.076As2,46
Ba1Fe1.948Mo0.052As2,46
Na1Al1Si1,46
Zr1Os1P1,46
B6Y1,46
La1Fe2As2,46
H0.985Pd1,46
Tm1Ni1.92Fe0.08B2C1,46
Ba0.1K0.9Fe2As2,46
Fe1Se0.75S0.25,46
Bi0.05Pb0.95,46
H0.1Nb0.9,46
Ca10Pt3.41Fe9.59As18,46
Er1Ir2Rh2B4,46
H0.983Pd1,46
Zr1.7Sc0.3P1.25Se0.75,46
Bi0.06Pb0.95,45.9
Bi0.4Sn0.6,45.9
Sc1Ru4B4,45.8
Lu0.9Dy0.1Ru1B2,45.8
Ca2.25Sr0.75Rh4Sn13,45.8
Zr1.85Sc0.15P1.25Se0.75,45.7
Hf1V2H0.5,45.6
Nb0.5Hf0.5N0.98,45.6
Nb0.894O0.106,45.53
Er0.46Ho0.54Rh4B4,45.5
La1Fe1P1O1,45.4
Ca2.25Sr0.75Rh4Sn13,45.4
Zr1.6Sc0.4P1.25Se0.75,45.4
Mo0.453Ru0.108P0.439,45.4
Er1Ni1.965Fe0.035B2C1,45.4
Lu0.8Tm0.2Ru1B2,45.4
Ba8Si46,45.3
Hf0.97V0.03B2,45.3
Eu1.85Ce0.15Cu1O3.98,45.3
Nd1.85Ce0.15Cu0.995Co0.005O4,45.3
La1.85Sr0.15Cu0.975Zn0.025O4,45.3
La2Cu0.97Zn0.03O4.1,45.3
Li2Pd2.7Ni0.3B1,45.3
Ca1Al1Si1,45.2
W7Re13C1,45.2
Hf0.025Re0.975,45.2
In0.7Sn0.3,45.2
Nb1Se2,45.2
Rh0.3W0.7,45.1
Nb3Ge0.5Ga0.5,45
Nb3Al0.39Ge0.61,45
Ga0.5Ge0.5Nb3,45
Nb0.149V0.272Ti0.579,45
Nb0.147Ti0.847Mo0.006,45
Mg1C1.25Ni3,45
Mg1C0.978Ni3,45
Er1Ni1.96Fe0.04B2C0.99,45
Lu0.88Gd0.12Ni2B2C1,45
Ti0.4V0.6,45
Bi0.8Sn0.2,45
W7Re13C1,45
Ti2In1N1,45
Mg1.2C1.6Ni3,45
Ba0.84K0.16Fe2As2,45
Bi3La1,45
Ta1As1,45
Mg1C1Ni2.9Co0.1,45
Pb0.99Sb0.01,45
H0.33Nb0.67,45
Lu0.8Tm0.2Ru1B2,45
Fe1Te0.75S0.25,45
Ba0.8K0.2Fe2As2,45
Pr0.85Eu0.15Pt4Ge12,45
Pb0.95Sn0.05,45
Ag0.15Pb0.975Sn0.01,45
Nb0.95W0.05,45
Bi1,45
K0.05Mo1O1.63,45
Zr1.6Lu0.4P1.25Se0.75,45
Sb2Te3,45
Ir1Zr2,45
La1.821Ce0.179Cu1O4,45
Pb1,45
La1Fe1P1O1,45
Bi0.011Pb0.99,45
Pb0.95Tl0.025Bi0.025,45
Pb0.977Sn0.023,45
Nb0.21Ti0.61Zr0.18,45
Er1Ni1.96Fe0.04B2C1,45
Ba0.6K0.4Bi0.5Pb0.5O3,45
Ba0.8K0.2Bi0.3Pb0.7O3,45
Ca1.88Na0.12Cu1Cl2O2,45
Ba0.4K0.6Bi1O3,45
U0.9Np0.1Co1Ga5,45
Ba6Sr2Si46,45
La1Ru4P12,45
La0.7Th0.3Ni1C2,45
Al0.1Be0.9,45
Li1Pb1,45
Pb1Pt1,45
Sb0.25Ti0.75,45
Ti0.516V0.484,45
Mo3O5,45
Nb0.26Re0.74,44.9
V3Si0.4Ge0.6,44.9
Mo3Os1,44.8
Na0.28Pb0.72,44.7
Nb0.147Ti0.853,44.7
Nb0.169Ti0.658Zr0.173,44.6
Nb0.147Ti0.853,44.6
Nb0.147Ti0.853,44.5
La1Ru4P12,44.5
Er1Ni0.973Co0.054B2C1,44.4
Ho1Ni1.998Co0.004B2C1,44.3
Yb3Rh4Sn13,44.3
Sc1Ru4B4,44.3
Mg1Cu1Ni3,44.2
Mg1C1Ni2.8Co0.2,44.1
Mg1C1Ni3,44.1
V3Ga0.7Sn0.3,44
Th1.4Sc0.6C3,44
Re0.8V0.2,44
La1Ru4P12,44
Nb1Se2,44
Pb1,44
Fe1Se0.92,44
Ba1Fe2As1.6P0.4,44
Sr1Fe1.86Co0.14As2,44
Bi1La1,44
Fe1Se0.83S0.17,44
Nb1Ir2B2,44
La0.1Ce0.9Ru2,44
In0.005Pb0.995,44
La0.05Ce0.95Ru2,44
Mo0.61Ru0.39,44
Tc0.4W0.6,44
La1Fe0.95Ir0.05As1O1,44
La1Ru3Si2,43.9
Pb1,43.9
Pb1,43.8
Pb1,43.6
In0.01Pb0.99,43.6
Pb0.9Sn0.1,43.5
Nb1Se2,43.5
Nb0.7Ta0.3,43.5
Pb1,43.5
Rb1Cr3As3,43.5
Ba1Fe1.866Pd0.134As2,43.5
B6Y1,43.5
Nb0.745Sn0.045Al0.064Ge0.146,43.5
In0.02Pb0.98,43.4
Ti0.2V0.8,43.3
Ti0.6V0.4,43.25
Ga4Mn0.006Mo0.994,43.2
Pb0.985Tl0.015,43.1
Hg0.031Pb0.969,43.1
Pb1Mo6S1Se7,43.1
Ca1Al1Si1,43.1
Nb1,43
Cd0.026Pb0.974,43
Pb0.9Zn0.1,43
Nb0.95V0.05N0.85,43
Mg1C1Ni3,43
Pr0.9Eu0.1Pt4Ge12,43
La2.958Ce0.042In1,43
Nb1Se2,43
La1Bi1S2F0.2O0.8,43
In0.029Pb0.971,43
W7Re13B1,43
Li2Pd3B1,43
Al0.04Nb0.895O0.06,43
B1C1Mo2,43
B5Mo1.7Ti0.3,43
Si1,43
Sn0.65Tl0.35,43
Nb0.119Ti0.866Ta0.015,43
Nb0.056V0.510Ti0.434,43
Tb0.2Er0.8Ni2B2C1,43
Ho1Ni2B2C1,43
Al0.24Nb0.76,43
Nb0.743Ga0.210Mn0.047,43
Pb0.3Yb0.7Mo6Se8,43
Er0.8Tb0.2Ni2B2C1,43
Mg1C1Ni2.6Co0.4,43
Ba8Si43Ge3,43
Th1.2Sc0.8C3,43
La1Mo6S8,43
Mo6Se5Br3,43
Ti0.5V0.5,43
Ta0.745Zr0.255,43
Ca3Ir4Sn13,43
Ca1Al1Si1,43
Fe1Se1,43
Nd1Fe0.95Rh0.05As1O1,43
La1Fe1P1F0.06O0.94,43
Ba1Fe1.24Ru0.76As2,43
Zr1.75Lu0.25P1.25Se0.75,43
In0.05Pb0.95,43
Mg1C0.925Ni3,43
In0.04Pb0.96,43
Ti0.615V0.385,42.9
Ti0.615V0.385,42.8
Mo0.96Co0.04Ga4,42.8
Sr0.065Bi2Se3,42.7
In0.06Pb0.94,42.7
Pb0.96Tl0.04,42.6
Pb0.96Tl0.04,42.5
Pb1Tl0.04,42.5
Pb0.95Tl0.05,42.4
Pb0.28Sn0.72,42.4
Sn1Fe0.05Mo6S8,42.4
Nb1.01Se2,42.3
Pr0.8Sr0.2Fe0.95Co0.05As1O1,42.2
B12Li1.7,42.2
Hf1V1.85Fe0.15,42.1
In0.087Pb0.913,42.05
La2C2Br2,42
Sc0.5V0.5,42
In0.08Pb0.92,42
Nb1Se2,42
Pr1.85Ce0.15Cu0.993Ni0.007O4.065,42
La2.96Ce0.04In1,42
Bi2Se3,42
La1.869Ba0.131Cu0.99Ni0.01O4,42
Bi2Ca2.5Eu0.5Cu2O8.31,42
La1.8Sr0.2Cu0.96Ni0.04O4,42
Ba6C60,42
Sr2Cu1C0.96B0.04O5,42
Ge0.3Cu4Sr2Ca3O11.05,42
Bi2Sr2Cu1O6.175,42
Ba0.34K0.66Bi1O3,42
Ru1Sr1.94La0.06Eu1Cu2O8,42
Ba8Ge42Co4,42
La1Ru4P12,42
B5Mo1.7Ta0.3,42
B5Nb1.8Th0.2,42
Bi0.45Pb0.55,42
Bi0.6Sn0.4,42
C3Er0.8Th1.2,42
Co1Zr2,42
Mo0.6Ru0.4,42
Nb0.93Tc0.07,41.9
Re1,41.9
Rh0.33Ta0.66,41.9
Rh0.4Zr0.6,41.8
Sn1V3,41.8
Ti0.6V0.4,41.8
Mo0.6Ru0.4,41.7
Al0.25Nb0.75,41.6
C1Hf0.25Nb0.75,41.5
Ca1Pb1,41.5
V0.497Ti0.476Zr0.028,41.5
Y1Ni1.9Ru0.1B2C1,41.5
La1Ru4P12,41.5
La1Os1Ru3P12,41.5
La1Os2Ru2P12,41.5
Nb1Se2,41.5
La1Ru4P12,41.4
La1Ru3Os1P12,41.4
La1Ru2Os2P12,41.4
Mg1C1Ni3,41.4
Na2Cs0.75C60,41.3
Ba6C60,41.3
C70,41.3
Mo3P1,41.2
Mg1C1Ni3,41.2
Y2I0.75Br1.25C2,41.2
Ge5La1,41.2
Mg1C0.977Ni3,41.1
Mg1C1Ni3,41.1
Mg0.6Al0.4B2,41.1
Y1Fe4P12,41.1
V0.65Ge0.1Al0.25,41
Ho1Ni1.99Fe0.01B2C1,41
Nb1Se2.2,41
Th1.2Er0.8C3,41
Lu3Si5,41
Na1Al1Si1,41
Li2Pd3B1,41
Sr1,41
La1Mo6S8,41
Li2Pd2.7Ni0.3B1,41
Ba1Pt3Au1Ge12,41
Na0.9Fe1As1,41
Fe1Se0.8,41
La1Fe1As0.8P0.2O1,41
La0.9Y0.1Fe1As1F0.1O0.9,41
La1Fe1As1F0.055O0.945,41
Sr1Fe1.6Pt0.4As2,41
Ba0.4K0.6O3,41
Sr1Fe1.5Ru0.5As2,41
Ca3Ir4Sn13,41
Ba0.1K0.9Fe2As2,41
Fe1Se0.93,41
Sn0.05Fe1Se0.93,41
Sn0.1Fe1Se0.93,41
Au0.1Sb0.9,41
Nb0.6Al0.08N0.79O0.21,41
Ti0.7V0.3,41
Ba0.833K0.167Fe2As2,41
Sr1Pt3P0.4Si0.6,41
La1Ru2As2,40.9
Te2W1,40.9
Bi2Te3,40.9
Nb1Se2,40.9
Ba1Re1H9,40.87
Sn3Y1,40.8
Sr3Ir4Sn13,40.8
Nb1C1,40.75
Na1Al1Si1,40.7
Bi1.7Pb0.3Sr2Ca0.8Y0.2Cu2O8,40.7
Y1Ba2Cu2.9Ni0.1O6.88,40.7
Y0.9Ca0.1Ba2Cu2.9Co0.1O6.84,40.7
Bi1.4Pb0.6Sr2Ca1.6Ga0.4Cu3O7,40.6
Bi2Sr2Ca1Cu2O8,40.6
Y1Ba2Cu2.835Fe0.165O6.98,40.6
Sm1Ba2Cu4O8,40.5
Ca0.3Ba1.45La1.25Cu3O7.12,40.5
Y1Ba2Cu3O6.78,40.5
Y1Ba2Cu3O6.8,40.5
Y1Ba1Sr1Cu2.9Sn0.1O7,40.5
Sr2Ca1Cu2F1O5,40.5
Bi2.2Sr1.72La0.08Ca1Cu2O8,40.4
Nd1Ba2Cu3S1O6,40.4
Y1Ba2Cu2.73Fe0.27O7.1,40.36
Nd1.3Ba1.7Cu3O7,40.3
Y1Ba2Cu2.73Fe0.27O7.1,40.25
Y1Ba2Cu2.7Fe0.3O7.1,40.23
Gd1Ba2Cu4O8,40.21
Al1Sr2Ca2Cu3O9.5,40.2
Sr2Y1Cu3O7.9,40.2
Sr2Y1Cu3O7.65,40.2
Cu2Re0.15Sr2Y1O7.3,40.2
Ca1La1Ba1Cu3O7,40.2
La1Ca1Ba1Cu3O7,40.1
La1Ba1Ca1Cu3O7,40.1
Y0.8Ca0.2Ba2Cu2.8Co0.2O6.83,40.1
Pb2Sr2Eu0.9Ca0.1Cu3O8.1,40.1
Y1Ba2Cu3O6.702,40.1
Y1Ba2Cu3O6.6,40.05
Er1Ba2Cu2.94Zn0.06O6.92,40
Hg1Ba2Cu0.97Zn0.03O4.052,40
Y0.8Ga0.2Ba2Cu4O8,40
Eu1Ba2Cu4O8,40
Y0.95Ca0.05Ba1.9La0.1Cu4O7.9,40
Y1Ba2Cu3O6.75,40
Y0.9Ca0.1Ba2Cu3O6.59,40
Ho1Sr0.2Ba1.8Cu4O8,40
Y1Ba2Cu4O8,40
Y1Ba2Cu3O6.73,40
Ca0.2Ba1.55La1.25Cu3O7.159,40
Y1Ba1Sr1Cu2.9Sn0.1O7.001,40
Ca0.4Ba1.35La1.25Cu3O7.08,40
Hg1.4Tl0.6Ba2Y0.4Ca0.6Cu2O7.71,40
Y1Ba2Cu3.96Co0.04O8,40
Yb0.7Ca0.3Ba1.6Sr0.4Cu3O6.73,40
Ho1Ba2Cu4O8,40
La1.25Ba1.55Ca0.2Cu3O7.16,40
Bi2Sr1.8Ca1.2Cu2O8,40
Y1Ba2Cu2.88Ti0.12O6.88,40
Bi2Sr2Ca0.85Pr0.15Cu2O8,40
Ho1Sr0.6Ba1.4Cu4O8,40
Y0.8Pr0.2Ba2Cu3O7.55,40
Eu0.9Pr0.1Ba2Cu3O7,40