formula,Tc
Tl0.5Pb0.5Sr2Ca0.9Y0.1Cu2O7,135.8
Y1Ba1.975La0.025Cu3O6.95,135.4
Y1Ba1.95La0.05Cu3O6.9,135
Y1Ba1.925La0.075Cu3O6.9,135
Sr2Ca1Cu2F2O4.6,135
Sr2Ca1Cu2F2O4.6,134.7
Sr0.7Ca0.3Cu1O2,134.2
Sr0.7Ca0.3Cu1O2,134
Bi2Sr2Ca1Cu2O8,134
Tl2Ba2Ca0.9Ce0.1Cu1.98Fe0.02O8,134
C0.3Ba2Ca4Cu5.7O12.8,134
Tl0.25Li0.25Ba2Ca2Cu2.25Si1.25O7.719,134
Bi2Sr2Ca1Cu2O8,133.4
Sr0.6Ca0.333Cu1O2.2,133
Hg1Ba2Cu1O4.09,133
Hg1Ba2Cu1O4.12,133
Hg1Ba2Ca1Cu2O6.31,132.9
Hg1Ba2Ca2Cu3O8.17,132.9
Hg1Ba2Cu1O4.081,132
V0.5Sr2.25Ca1.75Cu3.5O9.7,132
Sr1.4Ba0.6Cu1O3.4,132
Cu1Cr0.9Fe0.1O2,132
Tl1Ba2Ca0.8Y0.2Cu2O7,131.3
Hg1Ba2Cu1O4.162,130.3
Hg1Ba2Cu1O4.15,130
Y1Ba2Cu3O6.94,130
Tl1Ba1Sr1Ca2Cu3O9,130
Hg1Ba2Cu1O4.09,129
Bi1.6Pb0.4Sr2Ca2Cu3O10.15,128.7
Hg0.95Re0.05Ba2Cu1O4.372,128
Hg1Ba2Cu1O4.18,128
Hg1Ba2Cu1O4.22,128
Hg1Ba2Cu1O4.23,127
Hg1Ba2Cu1O4.13,127
Y1Ba2Cu3O6.69,127
Hg1Ba2Cu1F1O4,127
Hg1Ba2Cu1O4,126
Hg1Ba2Cu1O4,125
Hg0.9Re0.1Ba2Cu1O4.425,125
Hg1Ba2Cu1O4.15,125
Hg1Ba2Cu1O4.18,125
Hg0.92Ba2.05Cu1.03O4.062,124.5
Tl1Ba2Ca0.8Nd0.2Cu2O7,124
Hg0.85Re0.15Ba2Cu1O4.525,124
Hg0.85Re0.15Ba2Cu1O4.53,124
Gd1Ba2Cu3O7,123
Yb1Ba2Cu3O7,123
Y1Ba1.9La0.1Cu3O7,122.1
Gd1Ba2Cu3O7,122
Hg1Ba2Cu1O4.09,122
Hg0.8V0.2Ba2Cu1O4.3,122
Nd1Ba2Cu3O7,121
Hg1Ba2Cu1O4.08,121
Hg0.95Re0.05Ba2Cu1O4.37,121
Hg1Ba2Cu1O4,120
Sm1Ba2Cu3O7,120
Y0.8Ba2Cu3O6.44,120
Hg1Ba2Cu1F1O4,120
Bi2Sr2.1Y0.1Ca0.8Cu2O8.26,120
Y1.1Ba2Cu3O6.87,119.95
Tl1Ba2Ca0.6Y0.4Cu2O7,119
Gd1Ba2Cu3O7,119
Hg1Ba2Cu1O4.096,119
Sm1Ba2Cu3O7,118.5
Tl1Ba2Ca0.7Nd0.3Cu2O7,118.5
Y1Ba2Cu3O7,118
Nd1Ba2Cu3O7.16,118
Hg1Ba2Cu1O4.097,118
Bi2Sr2.08Ca0.92Cu2O8,118
Eu1Ba2Cu3O7,118
Y1Ba2Cu3O6.91,118
Y1Ba2Cu3O6.87,118
Dy1Ba2Cu3O7,118
Nd1Ba2Cu3O7,118
Y1Ba2Cu3O6.9,118
Y1Ba1.9La0.1Cu3O6.9,117.6
Y1Ba2Cu3O6.94,117.5
Y1Ba2Cu3O7,117.5
Bi2Sr2Ca2Cu4O11,117
Tl2Ba2Ca1Cu2O7.978,117
Ho1Ba2Cu3O7,116.7
Eu1Ba2Cu3O7,116.3
Tl1Ba2Cu1O5,116
Hg0.8Cr0.2Ba2Ca2Cu3O8.1,116
Nd1Ba2Cu3O6.82,116
Hg0.9Re0.1Ba2Cu1O4.42,115.7
Bi2Sr2Ca1Cu2O8,115.5
Hg1Ba2Cu1O4.18,115.1
Hg1Ba2Cu1O4.19,115
Sm1Ba2Cu3O6.95,115
Hg1Ba2Cu1O4.047,115
Tl0.5Ba2Ca1.3Be0.7Cu3.5O7.886,115
Sr2Cu1O3.4,115
Sr2Ca3Cu4F3.8O8,115
Eu1Ba2Cu3O7.1,115
Y2Ba4Cu7O14,115
Hg0.85Re0.15Ba2Cu1O4.52,115
Eu1Ba2Cu3O6.97,115
Er1Ba2Cu3O6.87,115
Y0.975Ca0.025Ba2Cu2.975Al0.025O6.89,115
Y1Ba2Cu3H0.2O6.98,115
Nd1Ba2Cu3O7,115
Hg0.9Re0.1Ba2Cu1O4.41,114.3
Nd1Ba2Cu3O7,114.1
Y1Ba2Cu2.95Co0.05O6.92,114
Y1Ba2Cu3O7,114
Bi8Sr8Ca4Cu9O34.16,114
Y2Ba4Cu7O14,114
Hg1Ba2Cu1O4.2,114
Gd1Ba2Cu3O6.98,114
Bi2Sr2.4Ca0.6Cu2O8,113.5
Y1Ba2Cu3O6.9,113.1
Hg1Ba2Cu1O4.1,113
Eu1Ba2Cu3O6.88,113
Gd1Ba2Cu3O6.99,113
Sm1Ba2Cu3O6.944,113
Y1Ba2Cu3O7,113
Bi2Sr1.4Li0.6Ca1Cu2O7.7,112.1
Y1Ba1.94La0.06Cu3O6.96,112
Y1Ba1.92La0.08Cu3O6.96,112
Hg1Ba2Cu1O4.08,112
Nd1Ba2Cu3O6.76,112
Dy1Ba2Cu3O6.75,112
Eu1Ba2Cu3O6.82,112
Hg1Ba2Ca2Cu3O8.18,112
Hg1Ba2Cu1O4.18,112
Hg1Ba2Ca2Cu3O8.17,112
Eu1Ba2Cu3O6.9,111
Bi2Sr1.9Y0.1Ca1Cu2O8.24,111
Y1Ba1.9La0.1Cu3O6.975,111
Y1Ba2Cu3O6.8,111
Er0.97Pr0.03Ba2Cu3O7,111
Gd1Ba2Cu3O7.08,111
Y0.2Eu0.8Ba2Cu3O7,111
Y1Ba2Cu3H0.38O7,111
Y1Ba1.95La0.05Cu3O6.96,111
Hg0.92Ba2.05Cu1.03O4.05,110
Hg0.9Re0.1Ba2Cu1O4.42,110
Y1Ba2Cu3O6.9,110
Y1Ba1.7Cs0.3Cu3O6.6,110
Bi2Sr2Ca1Cu2O8,110
Hg0.85Re0.15Ba2Cu1O4.49,110
Hg0.85Re0.15Ba2Cu1O4.55,110
Y0.95La0.05Ba2Cu3O6.58,110
Y1Ba2Cu3H0.48O7,110
Tl1Ba2Ca0.8Gd0.2Cu2O7,110
Y1Ba2Cu3H0.49O7,110
Y1Ba1.89La0.11Cu3O6.96,110
Y1Ba1.96La0.04Cu3O6.96,110
Er1Ba2Cu3O7,110
Eu1Ba2Cu3O6.94,110
Gd1Ba2Cu3O7,110
Bi2Sr2.65Ca0.35Cu2O8,110
Sm1Ba2Cu3O7.11,110
Bi4Ca3Sr3Cu4O16,110
Nd1Ba2Cu3O7,110
Y1Ba2Cu3H0.13O7,110
Y1Ba2Cu3H0.19O7,110
Y1Ba1.9La0.1Cu3O6.96,109
Y1Ba2Cu3O6.95,109
Y1Ba2Cu3O6.93,109
Y1Ba2Cu3O6.87,109
Y1Ba2Cu3O6.94,109
Y1Ba1.9Cs0.1Cu3O6.65,108.7
Y1Ba2Cu3O6.72,108.7
Y1Ba2Cu2.98Co0.02O6.9,108.7
Y1Ba2Cu3O7,108.6
Hg0.92Ba2.05Cu1.03O4.063,108.5
Hg1Ba2Cu1O4.101,108
Y1Ba2Cu3O6.95,108
Y0.9Ba2Cu3O6.58,108
Y1.2Ba2Cu3O6.98,108
Y1Ba1.9Rb0.1Cu3O6.52,107.995
Y1Ba1.8Cs0.2Cu3O6.58,107.5
C0.3Ba2Ca4Cu5.7O12.965,107.2
Y1Ba2Cu3H1O7,107
Y2La0.15Ba3.85Cu6O13.99,107
Y1Ba2Cu3O6.87,107
Y0.5Cd0.5Ba2Cu3O7,107
Y1Ba1.88La0.12Cu3O6.96,107
Y1Ba1.97La0.03Cu3O6.96,107
Y1Ba2Cu3O6.95,107
Y1Ba2Cu3O6.19,107
Hg1Ba2Cu1O4.18,107
Y1Ba2Cu3O4.86,107
Y1Ba2Cu3O6.93,107
Y1Ba2Cu3O6.95,106.7
Y1Ba2Cu3O6.95,106.5
Y1Ba2Cu3O7,106.5
Gd0.97Pr0.03Ba2Cu3O7,106
Y1Ba2Cu3O6.91,106
Y1Ba2Cu3O6.93,106
Y2Ba4Cu7O14.97,106
Sm1Ba2Cu3O7,106
Bi2Sr2Ca1Cu2O8,105.3
Y1Ba2Cu3O6.95,105.3
Y1Ba2Cu3O7,105.2
Y1Ba2Cu3O7,105
Y2La0.2Ba3.8Cu6O13.92,105
Y2Ba4Cu6O13.9,105
La1Ba2Cu3O6.85,105
Nd1Ba2Cu3O6.84,105
Y1Ba2Cu3.85O6.85,105
Y2Ba4Cu7O15,105
Er1Ba2Cu3O7,104.95
Y1Ba2Cu3O7,104.4
Bi2Sr2Ca1Cu2O8,104.4
Bi2Sr2Ca1Cu2O8,104
Bi2.15Sr1.8Ca1Cu2O8.15,104
Ga1Sr2Ca3Cu4O10.8,104
Y1Ba1.8K0.2Cu3O6.57,103.7
Y1Ba1.9La0.1Cu3O6.92,103.7
Tl1Sr2Ca0.2Y0.8Cu2O6.97,103.5
Y1Ba2Cu3O6.94,103
Y1Ba2Cu3O8,103
Y1Ba2Cu3O7,103
Er1Ba2Cu3O6.85,103
Y1Ba2Cu3O6.82,103
Bi2Sr2Ca1Cu2O8,102.5
Hg1Ba2Ca1Cu2O6.1,102.5
Y1Ba2Cu3O6.93,102.3
Y1Ba2Cu3O6.91,102
Y1Ba2Cu3O6.9,102
Y1Ba2Cu3O6.7,102
Y1Ba2Cu3O6.95,102
Bi2Sr1.8Y0.1Ca1.1Cu2O8.23,102
Gd1.1Ba1.9Cu3O7,102
Bi1.2Pb0.8Sr2Ca1Cu2O8,101
Tl0.7Na0.3Sr2Ca0.8Cr0.2Cu2O7,101
Ho1Ba2Cu3O6.71,100.1
Gd1Ba2Cu3O6.89,100
Y1Ba2Cu3O6.94,100
Y1Ba1.7K0.3Cu3O6.54,100
Y1Ba1.9La0.1Cu3O6.73,100
Y1Ba2Cu3O7,100
Sm1Ba2Cu3O6.85,100
Y0.8Cd0.2Ba2Cu3O7,99.3
Y0.7Cd0.3Ba2Cu3O7,99
Bi2Sr2Ca1Cu2O8.16,99
Y1Ba2Cu3H0.06O6.91,99
Y2Ba4Cu7O15.1,99
Y1Ba2Cu3O6.95,99
Yb1Ba2Cu3O6.9,99
Dy1Ba2Cu3O6.82,99
Y1Ba1.9K0.1Cu3O6.61,99
Bi2Sr2Ca1Cu2O8.19,98
Sm1Ba2Cu3O7,98
Y1Ba1.92La0.08Cu3O6.965,98
Y0.6Eu0.4Ba2Cu3O7,98
Bi2Sr2Ca0.8Y0.2Cu2O8.27,98
Y1Ba1.98La0.02Cu3O6.96,98
Y1Ba2Cu3O6.93,98
Y1Ba2Cu3O6.94,98
Y1Ba2Cu3O6.9,98
Bi2Sr2Ca1Cu1.988Ni0.012O8,98
Y1Ba2Cu3H0.14O7,97.6
Tm1Ba2Cu3O6.65,97.4
Y1Ba2Cu3O6.94,97.2
Er1Ba2Cu3O7,97
Y1Ba2Cu3O7,97
Y1Ba2Cu3O6.9,97
Bi2Sr2Ca0.8Lu0.2Cu2O8.27,97
Dy1Ba2Cu3O7,97
Tl2Ba2Cu1O6.1,97
Hg1Ba2Cu1O4.103,97
Y1Ba2Cu3O6.95,97
Y0.95Cs0.05Ba2Cu3O6.61,97
Er1Ba2Cu3O6.82,97
Lu1Ba2Cu3O7,96.8
Y0.9Rb0.1Ba2Cu3O6.42,96.8
Y1Ba2Cu3O6.92,96.6
Bi2Sr2Ca1Cu2O8,96.5
Bi2Sr2Ca1Cu2O8,96.3
Y1Ba2Cu3O6.906,96.3
Y1Ba2Cu3O6.95,96.3
Y0.9La0.1Ba2Cu3O6.62,96.2
Y1Ba2Cu3O6.75,96.1
Y1Ba2Cu2.94Zr0.06O6.81,96.1
Y0.925Ba1.975Ca0.1Cu4O8,96
Y1Ba2Cu3O6.99,96
Y1.2Ba1.8Cu3O6.68,96
Ho1Ba2Cu3O6.87,96
Dy1Ba2Cu3O6.9,96
Y1Ba2Cu3O7,96
Y1Ba2Cu3O6.96,96
Y1Ba2Cu3O6.962,96
Y1Ba2Cu3O6.95,96
Nd1Ba2Cu3O7,96
Y1Ba2Cu3O6.92,96
Y1Ba2Cu3O6.96,95.9
Y1Ba2Cu3O6.98,95.8
Bi2Sr2Ca1Cu2O8.272,95.7
Y1Ba2Cu3O6.95,95.6
Eu1Ba2Cu3O7,95.5
Ho1Ba2Cu3O7,95.5
Ho1Ba2Cu3O7,95.3
Y1Ba2Cu3O6.89,95.3
Y1Ba2Cu3O7,95.3
Y1Ba2Cu3O7,95.2
Tm1Ba2Cu3O7,95.2
Bi2Sr2Ca0.8Yb0.2Cu2O8.26,95.1
Y1Ba2Cu3O7,95.1
Y1Ba1.99La0.01Cu3O6.96,95
Tl2Ba2Cu1O6,95
Hg0.92Ba2.05Cu1.03O4.058,95
Y1Ba2Cu3O6.89,95
Y1Ba2Cu3O6.962,95
Y0.9K0.1Ba2Cu3O6.51,95
Y0.95Rb0.05Ba2Cu3O6.59,95
Y1Ba2Cu2.9Al0.1O6.93,95
Y1Ba2Cu3O6.85,95
Y1Ba2Cu3O6.98,95
Eu1Ba2Cu3O7,95
Gd1Ba2Cu3O7,95
Gd1Ba2Cu3S1O6,95
Gd1Ba2Cu3O6.9,95
Y1Ba2Cu2.97Co0.03O6.96,95
Y1Ba2Cu2.925Co0.075O6.97,94.9
Y1Ba2Cu3O6.8,94.8
Y1Ba2Cu3O7,94.8
Y1Ba2Cu3O7,94.77
Er1Ba2Cu3O6.91,94.5
Y1Ba2Cu3O7,94.5
Y1Ba2Cu3O6.9,94.5
Y1Ba2Cu3O7.1,94.5
Y1Ba2Cu3O6.9,94.4
Y1Ba2Cu3O7,94.2
Tl2Ba2Ca1Cu2O7.984,94.2
Er1Ba2Cu3O7,94.2
Nd1.1Ba1.9Cu3O6.9,94.2
Y1Ba2Cu3O7,94.1
Y1Ba2Cu3O6.93,94
Bi2Sr2Ca0.8Y0.2Cu2O8.26,94
Y1Ba2Cu3O6.9,94
Y2Ba4Cu7O15,94
Er1Ba2Cu3O7,94
Bi2Sr2Ca1Cu2O8.194,94
Ba2Cu3O7,94
Y1Ba2Cu3O6.92,94
Y0.95Ca0.05Ba2Cu2.95Al0.05O6.88,94
Y1Ba2Cu3Br0.9O6.2,94
Bi0.33Hg0.67Sr2Y0.5Ca0.5Cu2O7,94
Hg1Ba2Ca1Cu2O6.08,94
Y1Ba2Cu3H1.4O6.98,94
Y1Ba2Cu3O7,93.9
Y1Ba1Sr1Cu3O6.9,93.9
Tl1Ba2Sr1Ca2Cu3O9,93.8
Y1Ba2Cu3O6.94,93.8
Y1Ba2Cu3O6.96,93.8
Y1Ba2Cu3O6.83,93.8
Tl1Sr2Ca0.5Y0.5Cu2O6.89,93.8
Tl1Sr2Ca0.4Y0.6Cu2O6.93,93.8
Tl1Sr2Ca0.3Y0.7Cu2O6.97,93.8
Hg1Ba2Cu1O4.085,93.75
Hg1Ba2Cu1O4.1,93.7
Pr1Ba2Cu3O7,93.7
Y1Ba2Cu3O6.93,93.65
Y1Ba2Cu3O4,93.6
Bi1.8Pb0.2Sr2Ca1Cu2O8,93.6
Y1Ba2Cu3O6.98,93.6
Y1Ba2Cu3O6.9,93.6
Y1Ba2Cu3O7,93.6
Y1Ba2Cu3O6.03,93.6
Y1Ba2Cu3O6.88,93.6
Y1Ba2Cu3O6.93,93.6
Y1Ba2Cu3O7,93.5
Er1Ba2Cu3O7,93.5
Y1Ba2Cu3O6.95,93.5
Hg1Ba2Ca1Cu2O6.1,93.5
Y1Ba2Cu3O6.8,93.5
Tl0.5Pb0.5Sr2Ca0.65Y0.35Cu2O7,93.5
Eu1Ba2Cu3O6.5,93.5
Y1Ba2Cu3O6.9,93.5
Y1Ba2Cu3O6.6,93.45
Y1Ba2Cu3O6.1,93.4
Y1Ba2Cu3O6.6,93.4
Y1Ba2Cu3O6.9,93.4
Y1Ba2Cu3O6.91,93.4
Bi2Sr2Ca1Cu2O8.25,93.4
Y1Ba2Cu3O6.96,93.4
Y1Re0.05Ba2Cu2.95O7.02,93.4
Y1Re0.05Ba2Cu2.95O7.04,93.4
Y1Ba2Cu3O6.95,93.35
Y1Ba2Cu3O7,93.3
Gd1Ba2Cu3O6.758,93.2
Y1Ba2Cu3O6.93,93.2
Y1Ba2Cu3O7,93.2
Tl0.7Li0.3Sr2Ca0.8Cr0.2Cu2O7,93.2
Y0.85Rb0.15Ba2Cu3O6.48,93.2
Y1Ba1.9La0.1Cu3O7.06,93.2
Y1Ba1.86La0.14Cu3O6.96,93.2
Y1Ba2Cu2.98Fe0.02O6.93,93.2
Y1Ba2Cu2.95Fe0.05O6.92,93.2
Y1Ba2La1.94Cu3O6.963,93.2
Tl1Ba2Ca0.9Gd0.1Cu2O7,93.2
Y0.887Ba1.962Ca0.15Cu4O8,93.15
Y1Ba2Cu3O6.939,93.1
Ho1Ba2Cu3O6.96,93.1
Y1Ba1.96Sr0.04Cu3O6.98,93.1
Y1Ba2Cu3O6.955,93.1
Y1Ba2Cu3O6.96,93.1
Y1Ba2Cu3O6.94,93.1
Bi2Sr2Ca0.8Dy0.2Cu2O8.26,93.05
Y0.6Cd0.4Ba2Cu3O7,93
Y0.4Cd0.6Ba2Cu3O7,93
Nd1Ba2Cu3O6.81,93
Y0.95Sc0.05Ba2Cu3O6.63,93
Y1Ba1.8La0.2Cu3O6.81,93
Y1Ba2Cu3H0.52O6.91,93
Dy1Ba2Cu3O7,93
Y1Ba2Cu3O6.8,93
Y1Ba2Cu2.98Ni0.02O7,93
Y1Ba2Cu3O6.97,93
Y0.85Ba1.95Ca0.2Cu4O8,93
Y1Ba2Cu3O6.9,93
Hg0.92Ba2.05Cu1.03O4.065,93
Y1Ba1.9K0.1Cu3O6.9,93
Y0.95Pr0.05Ba2Cu3O6.97,93
Y0.95Pr0.05Ba2Cu3O6.95,93
Y0.962Ba1.987Ca0.05Cu4O8,93
Ho1Ba2Cu3O6.9,93
Y1Ba2Cu3O6.92,93
Y0.95Pr0.05Ba2Cu3O6.96,93
Er1Ba2Cu3O6.94,93
Nd1Ba2Cu3O6.93,93
Y0.975Ca0.025Ba2Cu3O6.95,93
Y1Ba2Cu3O6.88,93
Ho1Ba2Cu3O7,93
Y1Re0.1Ba2Cu2.9O7,93
Y1Re0.15Ba2Cu2.85O7.07,93
Bi2Sr3Cu2O8,93
Y1Ba2Cu2.96Co0.04O7,93
Y1Ba2Cu2.955Fe0.045O6.93,92.9
Y1Ba2Cu3O7,92.9
Y1Ba2Cu3O6.99,92.9
Y1Ba2Cu3O7,92.85
Y1Ba2Cu3O6.9,92.85
Y0.9Sc0.1Ba2Cu3O6.56,92.83
Y1Ba2Cu3H0.91O6.91,92.8
Dy0.95Pr0.05Ba2Cu3O6.9,92.8
Y1Ba2Cu3O6.93,92.8
Y1Ba2Cu3O7,92.8
Y1Ba2Cu3O6.96,92.8
Y1Ba2Cu3O6.94,92.8
Y0.2Yb0.8Ba2Cu3O6.91,92.8
Y1Ba2Cu3O7.1,92.74
Ho1Ba2Cu3O7,92.7
Y1Ba2Cu3O6.96,92.7
Y0.9Cs0.1Ba2Cu3O6.47,92.7
Y1Ba2Cu3O6.97,92.7
Y1.1Ba1.9Cu3O6.65,92.6
Y1Ba2Cu3H0.32O6.91,92.6
Y1Ba2Cu3O7,92.6
Y1Ba2Cu3O6.82,92.6
Y1Ba2Cu2.95Co0.05O6.88,92.6
Y1Ba2Cu2.97Fe0.03O7,92.6
Bi2Sr2Ca0.8Yb0.2Cu2O8.26,92.6
Y1Ba2Cu3O6.94,92.55
Y1Ba2Cu3O6.951,92.5
Y1Ba2Cu3Li0.02O7,92.5
Sm1Ba2Cu3O6.878,92.5
Er1Ba2Cu3O7,92.5
Bi2Sr1.8Ca1Lu0.2Cu2O8.27,92.5
Y0.9Ca0.1Ba2Cu2.9Al0.1O6.88,92.5
Er0.924Pr0.076Ba2Cu3O7,92.5
Y1Ba2Cu3O6.821,92.5
Y1Ba2Cu3H0.27O6.91,92.5
Y0.4Yb0.6Ba2Cu3O6.93,92.5
Nd1Ba1.8Sr0.2Cu3O6.96,92.5
Y1Ba1.7Rb0.3Cu3O6.52,92.45
Dy1Ba2Cu3O7,92.4
Y1Ba2Cu3O6.74,92.4
Y1Ba2Cu2.95Al0.05O6.93,92.4
Y1Ba2Cu3O6.9,92.4
Y1Ba2Cu3O6.84,92.4
Y1Ba2Cu3O7,92.4
Y1Ba2Cu3O6.86,92.4
Y1Ba2Cu3O7,92.35
Y1Ba2Cu3O6.92,92.3
Y1Ba2Cu3O6.95,92.3
Y0.9Ca0.1Ba2Cu4O8,92.3
Y1Ba2Cu3O6.93,92.3
Bi2Sr2Ca1Cu2O8.195,92.3
Bi2Sr2Ca1Cu2O8.118,92.3
Y1Ba2Cu3O6.9,92.2
Y1Ba2Cu3O6.95,92.2
Y1Ba2Cu3O7,92.2
Sr1Cu1O2,92.2
Y1Ba2Cu3F0.25O6.7,92.2
Y1Ba2Cu3F0.29O6.7,92.2
Y1Ba2Cu3F0.38O6.7,92.2
Hg1Ba2Cu1O4.07,92.2
Y1Ca1Ba2Cu3Ni1O6.89,92.2
Sm1Ba2Cu3O6.86,92.2
Bi2Sr2Ca1Cu2O8.26,92.15
Nd1Ba2Cu3O6.98,92.12
Y0.14Tm0.85Ba2Cu3O7,92.1
Y1Ba2Cu3O6.95,92.1
Gd1Ba2Cu3O6.969,92.1
Y1Ba2Cu3F0.1O7,92.1
Y1Ba2Cu3F0.2O7,92.1
Tl1.63Ba2Ca1.3Cu2O7.94,92.1
Y0.9Tb0.1Ba2Cu3O7,92.1
Y0.68Tb0.32Ba2Cu3O7,92.1
Hg1Ba2Cu1O4.27,92.1
Y1Ba2Cu2.94Fe0.06O7.254,92.1
Tl2Ba2Cu1O6,92.1
Dy1Ba2Cu3O7,92.1
Hg0.8Mn0.2Ba2Cu1O4.2,92.1
Y1Ba1.9La0.1Cu3O6.99,92.1
Y1Ba2Cu3O6.93,92.1
Er1Ba2Cu3O6.93,92.05
Y1Re0.1Ba2Cu2.9O7.09,92.05
Y1Re0.15Ba2Cu2.85O7.17,92.03
Y1Ba2Cu3O6.957,92
Y0.99La0.01Ba2Cu3O7.07,92
Y0.9La0.1Ba2Cu3O6.97,92
Bi1.4Pb0.6Sr2Ca1Cu2O8,92
Na0.05W1O3,92
Ba2Ca3Cu4F1.4O8.6,92
Y1Ba2Cu3H0.14O6.91,92
Y1Ba2Cu3O6.85,92
Bi2Sr2Ca0.8Gd0.2Cu2O8.27,92
Bi2Sr2Ca0.8Eu0.2Cu2O8.26,92
Y1Ba2Cu3O6.95,92
Er1Ba2Cu3O6.953,92
Hg1Ba2Cu1O4.105,92
Gd1Ba2Cu3O6.99,92
Y1Ba2Cu2.97Ga0.03O7,92
Y1Ba2Cu3O6.93,92
Y1Ba2Cu3O6.9,92
Tl1Ba2Ca0.9Nd0.1Cu2O7,92
Bi2Sr2Ca0.8Dy0.2Cu2O8.26,92
Lu1Ba2Cu3O7,92
Y1Ba2Cu3O6.89,92
Gd1Ba2Cu3O6.94,92
Y1Ba2Cu3O6.96,92
Sm1Ba2Cu3O6.941,92
Y1Ba2Cu2.98Fe0.02O7,92
Sm1Ba2Cu3O6.99,92
Hg0.92Ba2.05Cu1.03O4.044,92
Y1Ba2Cu2.95Ni0.05O7,92
Y1.04Ba1.96Cu3O6.8,92
Y1Ba2Cu3O6.88,92
Bi2Sr2Ca1Cu2O8.21,92
Y1Ba1.8Rb0.2Cu3O6.56,92
Y1Ba2Cu3F0.825O1,92
Y1Ba1.8Sr0.2Cu3O6.8,92
Y0.85Ca0.15Ba2Cu2.85Al0.15O6.87,92
Y1Ba2Cu2.985Ni0.015O6.92,92
Y1Ba2Cu3O6.94,92
Nd1Ba2Cu3O6.09,92
Hg0.9Re0.1Ba2Cu1O4.35,92
Y1Ba2Cu4O6.998,92
Bi2Sr1.8Ca1Y0.2Cu2O8.25,92
Sm1Ba2Cu3O6.85,92
Y0.85Cs0.15Ba2Cu3O6.5,92
Y1La0.2Ba1.8Cu3O7.49,92
Y1La0.2Ba1.8Cu3O7.79,92
Tm1Ba2Cu3O7,92
Tm1Ba2Cu3O6.91,92
Y1Ba1.9La0.1Cu3O6.99,92
Y1Ba2Cu3F1.65O5.675,92
Y1Ba2Cu3O6.87,92
Y1Ba2Cu3O6.98,92
Y1Ba2Cu2.98Zr0.02O6.84,92
Bi2Sr2Ca1Cu2O8.288,92
Y0.85K0.15Ba2Cu3O6.48,92
Bi2Sr1.8Ca1Yb0.2Cu2O8.26,92
Y1Ba2Cu2.93Fe0.03O7,92
Y1Ba2Cu3O6.91,92
Y1Ba2Cu3S1O6,92
Y1Ba2Cu3S0.03O7.12,92
Y2La0.1Ba3.9Cu6O13.94,92
Y1Ba2Cu2.85Ag0.15O7,92
Y1Ba2Cu2.9Sn0.1O7.28,92
Bi2Sr2Ca1Cu2O8,92
Tl2Ba2Ca1Cu2O7.984,92
Y0.85Ca0.15Ba2Cu4O8,92
Y0.8Ca0.2Ba2Cu4O8,92
Y0.7Ca0.3Ba2Cu4O8,92
Bi2Sr2Ca0.9Y0.1Cu2O8.23,92
Gd1Ba2Cu3O7,92
Bi2Sr2Ca1Cu2O8.1,91.95
Sm1Ba2Cu3O6.95,91.9
Gd1Ba2Cu3O6.95,91.9
Eu1Ba2Cu3O7.01,91.85
Tm1Ba2Cu3O7,91.8
Er1Ba2.03Cu3.05O7,91.8
Gd1Ba2Cu3O7,91.8
Er1Ba2Cu3O7,91.8
Pb0.7Hg0.3Sr2Nd0.3Ca0.7Cu2O6.6,91.8
Y1Ba2Cu2.7In0.3O6.9,91.8
Y1Ba2Cu3O6.869,91.8
Er1Ba2Cu3O6.92,91.8
Hg0.8V0.2Ba2Cu1O4.3,91.8
Pr1Ba2Cu3O7,91.8
Ge0.4Cu3Sr2Ca1.9Y0.1O9.3,91.7
Cu2C0.5Sr2Ca1O7,91.7
Tl1Sr1.5La0.5Ca1Cu2O7,91.7
Er1Ba2Cu2.95Ga0.05O6.75,91.7
Y1Ba2Cu3O6.96,91.7
Y1Ba2Cu3O6.91,91.7
Dy1Ba2Cu3O6,91.7
Nd1Ba2Cu3O6.94,91.7
Hg1Tl1Ba2Ca4Cu5O14,91.7
Y1Ba2Cu3O6.99,91.7
Sm1Ba2Cu3O6.92,91.6
Dy1Ba2Cu3O6.84,91.6
Sm1Ba2Cu3O6.89,91.6
Dy1Ba2Cu3O6.68,91.6
Sm1Ba2Cu3O6.82,91.6
Dy1Ba2Cu3O6.79,91.6
Y1Ba2Cu3O6.92,91.6
Hg1Ba2Cu1F1O4,91.6
Y1Ba1.95La0.05Cu3O6.98,91.6
Y1Ba1.95Cu2.95Co0.05O7,91.5
Y1Ba2Cu3O6.1,91.5
Y1Ba2Cu2.995Zn0.004O6.95,91.5
Y1Ba2Cu3O6.93,91.5
Y1Ba2Cu3O6.83,91.5
Bi2Sr2Ca1Cu2O8.245,91.5
Bi2Sr2Ca1Cu2O8.26,91.5
Y1Re0.1Ba2Cu2.9O7.08,91.5
Y1Re0.15Ba2Cu2.85O7.13,91.5
Sm1Ba2Cu3O6.858,91.5
Ca1La1Ba1Cu2.8P0.2O7,91.5
Ba2Ca2Cu3F2O6,91.5
Lu1Ru1B2,91.5
Y2C2I2,91.5
Hf0.6Zr0.4V2,91.5
Ba1Pb0.4Hg0.35Bi0.25O3,91.5
La1.86Ba0.14Cu1O4,91.4
Zr0.3Hf0.7V2,91.4
B2.4Nb1,91.4
B2.8Nb1,91.4
B3Nb1,91.4
Ca10Pt0.78Fe9.22As18,91.4
La1.5Nd0.4Ba0.1Cu1O4,91.4
La1.74Sr0.26Cu1O4,91.4
In1La3,91.4
Fe1Se0.9S0.1,91.4
V2Hf0.9Nb0.1,91.4
C1W1,91.4
Y1Ni1.4Pd0.6B2C1,91.4
Ta0.8W0.2C1,91.4
Nd1.83Ce0.17Cu1O4,91.4
Zr0.7Hf0.3V2,91.4
As0.1P0.9,91.3
Hf0.6V2Zr0.4,91.3
V2.742Zr0.258Ga1,91.3
Nb0.500Zr0.450Mo0.050,91.3
Nb0.500Zr0.250Ta0.250,91.3
Al1Nb3,91.3
Nb0.8Ta0.2C1,91.25
V0.65Si0.1Al0.25,91.25
Lu1Tc2,91.2
Fe1Se1,91.2
Mo1Re3,91.2
La1.78Sr0.22Cu0.995Zn0.005O4,91.2
Mo0.95Hf0.05C0.68,91.2
Tm1Rh4B4,91.2
Pr1Fe0.9Co0.1As0.7P0.3O1,91.2
Fe1Se0.95S0.05,91.19
Hf0.15Nb0.85,91.18
Pd0.02Rh0.31Zr0.67,91.15
Nb0.743Ga0.198Co0.059,91.1
Y2I2C2,91.1
Fe1Se0.88,91.1
La1Fe0.999Mn0.001As1F0.11O0.89,91.1
In1La3,91.1
V2Hf0.9Ta0.1,91.1
Ho0.6Lu0.4Ni2B2C1,91.1
Sr0.66Eu0.34Fe1.76Co0.24As2,91.1
Na1Fe0.995Co0.005As1,91.1
La0.81Rh4P12,91.1
La1.9Ba0.1Cu0.99Zn0.01O4,91.06
Nd0.8Pr0.2Ba2Cu3O6.75,91.05
La1.45Nd0.4Sr0.15Cu1O4,91.05
K1Os2O6,91
La1.71Sr0.25Ho0.04Cu1O4,91
Be22Os0.005Re1,91
Ga4Mo1,91
Mo3Re1,91
Nb0.05Re0.75Ta0.2,91
Nb0.5Sn0.25V0.25,91
Nb0.6Ti0.4,91
Ir2Nb3,91
V3Si0.4Sn0.6,91
V1Nb2Sn1,91
Al2C1Mo3,91
C0.984Nb1,91
Ir0.4Nb0.6,91
N1Zr1,91
Nb2Sn1V1,91
Nb0.454Ti0.176Zr0.370,91
Nb0.505Zr0.485Mo0.010,91
Y1Ni1.9Co0.1B2C1,91
C0.96Nb1,91
Nb0.25Ta0.75C1,91
Eu1.2Mo6S8,91
Tm1Rh4B4,91
B2.32Nb1,91
V0.75Si0.025Al0.225,91
Mo0.6Pt0.05Re0.35,91
Ir0.41Nb0.59,91
Y4Os4Si13,91
Ce1Fe0.9Co0.1As1F0.1O0.9,91
Ga41Mo8,91
Lu1Ru1B2,91
Eu2Sr1Bi2S4F4,91
Li1Fe0.95Co0.05As1,91
Ca10Pt5Fe9As18,91
B2Nb0.83,91
Zr0.13Hf0.87V2,91
Be0.98Re0.02,91
In1La3,91
Dy0.2Tm0.8Ni2B2C1,91
Hf0.8Zr0.2V2,91
Lu0.87Gd0.13Ni2B2C1,91
Nb1,91
La1.87Ba0.13Cu1O4,91
La1.7Ba0.3Cu1O4,91
Ga0.205V0.795,91
Be0.86Pb0.14,91
Nb0.75Ti0.15Zr0.1,91
Re0.6W0.4,91
Tc6Zr1,91
Nb0.18Re0.82,91
V3Si0.6Sn0.4,90.95
C0.987Ta1,90.9
Nb0.403Ti0.391Zr0.205,90.9
Nb0.8Ga0.15Cr0.05,90.9
Nb0.4Ta0.6C1,90.9
V0.63Si0.14Al0.23,90.9
Ir0.385Nb0.615,90.9
Nb0.5Zr0.5,90.9
In1La3,90.88
Ga0.159V0.841,90.85
Ga41Mo8,90.85
Mn0.3Fe0.7Se0.85,90.815
Fe0.9Se0.25Te0.75,90.8
La1Fe1Si1H1,90.8
Hf1V2,90.8
Be0.957Re0.043,90.8
La1Fe0.999Mn0.001As1F0.11O0.89,90.8
Be22Re1,90.75
Se1,90.7
Zr0.208V0.744Nb0.048,90.7
K1Os2O6,90.7
V0.782Zr0.218,90.7
Y0.56Er0.44Rh4B4,90.7
Be0.957Re0.043,90.7
K1Os2O6,90.6
Sn0.1Bi1.1Sb0.9Te2S1,90.6
Nb0.9Ti0.1,90.6
Nd1.85Ce0.15Cu0.996Co0.004O4,90.6
Ca0.3Ba1.45La1.25Cu3O6.96,90.6
La1.78Sr0.22Cu0.98Zn0.02O4,90.6
Sm0.75Gd1.1Ce0.15Cu1O3.97,90.565
La1.875Ba0.075Sr0.05Cu1O4,90.55
Li1.1Ti1.9O4,90.5
K1Os2O6,90.5
C1.58La1,90.5
Rh0.17Zr0.83,90.5
Nb3Rh0.02Pt0.98,90.5
Na2Cs0.93C60,90.5
Y2I1.2Br0.8C2,90.5
Hf0.1Nb0.9,90.5
Rh0.08Zr0.92,90.5
Sr1Fe1.82Ni0.18As2,90.5
Tm1Rh4B4,90.4
Ba1Fe1.894Co0.042Cu0.064As2,90.4
Sm1Fe0.9Rh0.1As1O1,90.4
Fe1Te0.9Se0.1,90.4
Ir0.58Rh0.36Se2,90.4
Na1Fe1As1,90.4
Fe1Se0.96S0.04,90.4
Zr0.203V0.725Nb0.072,90.36
Na1Fe1As1,90.35
Fe1Se0.96S0.04,90.3
Cd0.1In0.9La3,90.3
Be22Re1,90.3
La3In0.9Cd0.1,90.3
In1La3,90.25
Hf0.8Ta0.2V2,90.2
In1La3,90.2
K1Os2O6,90.2
Ba0.5K0.5Fe1.9Mn0.1As2,90.2
Hf0.05Nb0.95,90.2
Fe1Se1,90.2
La1.78Sr0.22Cu0.98Zn0.02O4,90.15
Ba1Pb0.8Bi0.2O3,90.1
La1.88Ba0.12Cu1O4,90.1
La1.96Sr0.04Cu1O4,90.1
Pr1.48Y0.37Ce0.15Cu1O4,90
Pr0.925Gd0.925Ce0.15Cu1O4,90
Nd1.85Ce0.15Cu0.96Zn0.04O4,90
K1Os2O6,90
Be0.96Re0.04,90
C0.5Mo0.17Zr0.42,90
Ga2Mo1,90
Hf0.5Nb0.5,90
Ir0.3Mo0.4Re0.3,90
Rh0.14Zr0.86,90
Nb3Rh0.3Au0.7,90
Be9.8Re0.02,90
Mo1Ru1,90
Y1Ni1.9Co0.1B2C1,90
Er1Ni2B2C1,90
B2Ta1,90
Hf1Ru4P2,90
V3Ga0.6Si0.4,90
B2Nb1,90
Er1Ni1.96Fe0.04B2C1,90
Y0.47Er0.53Rh4B4,90
Sr1Fe1.826Co0.174As2,90
Bi2Te3,90
La1Bi1S2F0.6O0.4,90
P1,90
Fe0.99Ni0.01Se0.3Te0.7,90
Ti2Ge1C1,90
Hf0.95Ta0.05V2,90
Hf0.9Ta0.1V2,90
Hf0.2Nb0.8,90
Nb1,90
In1La3,90
Nb0.5Zr0.5,90
Zr0.87Hf0.13V2,90
Be22Re0.95W0.05,90
Be0.98Re0.02,90
Nb0.35Zr0.65,90
Fe1Se1,90
Re0.77Mo0.23,90
La3In0.7Al0.3,90
Nb0.95Ti0.05,90
Ta0.4W0.6C1,90
Sr1Fe1.72Zn0.08Co0.2As2,90
La1.85Sr0.15Cu0.966Ni0.034O4,90
Na2Rb0.25Cs0.75C60,90
Li1.12Ti1.88O4,90
Nb0.55Ti0.45,90
Re0.9V0.1,90
V3Si0.68Ga0.32,90
Nb0.674Sn0.014Al0.178Ge0.133,90
La0.84Mo6Se8,90
Nb0.8Ga0.15Ni0.05,90
Nb0.6Ta0.4C1,90
Y1Th3.4Ru0.6B4,90
V0.784Ga0.172Al0.044,90
V0.683Ga0.22Al0.097,90
Au1Ga40Mo8,90
K1Os2O6,89.935
Nb1,89.93
C1,89.9
Re3W1,89.9
Fe1Se1,89.9
Mo1S2,89.9
La1Fe2As2,89.9
Fe1Se0.88S0.12,89.9
Cu0.7Nb0.3,89.9
La1.8Ba0.2Cu1O4,89.9
Bi0.1C1.45Y0.9,89.9
Y1.8Bi0.2C2.9,89.9
La1.52Nd0.4Sr0.08Cu1O4,89.9
Hf1V2,89.88
Be22Re1,89.88
Nb0.4Ta0.6C1,89.8
Ba1Fe1.678Ru0.322As2,89.8
Ba0.9K0.1Bi0.3Pb0.7O3,89.8
La1.881Ba0.119Cu1O4,89.8
B5Nb1.9Y0.1,89.8
Nb0.33Ti0.67,89.8
Nb0.35Ti0.15Zr0.5,89.8
Nb0.79Si0.21,89.8
Ho0.85Y0.15Ni2B2C1,89.8
Y0.85Gd0.15Ni2B2C1,89.75
Er1Ni2B2C1,89.7
Zr1Ru0.95Rh0.05P1,89.7
Li1Fe0.98Cu0.02As1,89.7
Eu0.85La0.15Fe1As2,89.7
H0.995Pd1,89.7
Nb1,89.7
Hf1V2,89.7
Nb0.999Y0.001,89.66
Hf1V2,89.6
C1Mo1,89.6
Nb0.98Y0.02,89.6
Ga0.3In0.7La3,89.6
Mo0.23Re0.77,89.6
Be0.99Re0.01,89.6
Nb1,89.5
Cu0.7Nb0.29Ta0.01,89.5
V1N1,89.5
La3In0.7Ga0.3,89.5
Sr2Ca12Cu24O41,89.5
La1F0.5Bi1S2O0.5,89.5
Fe0.97Co0.03Se0.3Te0.7,89.5
Ir0.44Rh0.5Se2,89.5
Nb0.999O0.001,89.5
Fe1Se0.8S0.2,89.5
Nb0.995Ta0.005,89.5
V2Hf0.95Y0.05,89.5
Nb1,89.4
Bi1.5Pb0.5Sr1.8La0.2Cu1O5.983,89.4
Ba0.6K0.4Bi0.6Pb0.4O3,89.4
Nd0.75Pr0.25Ba2Cu3O6.85,89.4
Be5Os1,89.4
Be22Re0.95Os0.05,89.4
Hf1V2.3,89.3
Hf1V2,89.3
Nb0.2Zr0.8,89.3
Tm1Ni1.98Co0.04B2C1,89.3
Er1Ni0.199Co0.02B2C1,89.3
Pb0.6Yb0.4Mo6Se8,89.2
Er0.9Tb0.1Ni2B2C1,89.2
B2.26Nb1,89.2
Be22Re0.95Os0.05,89.2
Be22Re0.99Ru0.01,89.1
Nb1,89.1
In1La3,89.1
Sn0.48Eu0.6Mo6.35S8,89.1
Nb3Pt1,89.1
Ir0.455Nb0.455O0.09,89.1
La1.925Ca0.075Cu1O4,89.1
Sm0.25Fe0.75Se0.85,89.1
Sr1Fe1.85Ni0.15As2,89.1
Fe1Se0.874Sb0.046,89
Ba0.81K0.19Fe2As2,89
Mo5P1.1B1.9,89
Ga41Mo7V1,89
V2Hf0.9Y0.1,89
V2Hf0.9Ti0.1,89
Gd0.01Nb0.99,89
Nb1,89
Gd0.001Nb0.999,89
Ta0.4Mo0.6C1,89
Nb0.742Ga0.185Co0.073,89
B2.34Nb1,89
Ga1V4.5,89
Hf1V2,89
Fe1Se0.95S0.05,89
Hf0.99Ta0.01V2,89
La1.85Sr0.15Cu0.982Al0.018O4,89
La1.5Nd0.4Sr0.1Cu1O4,89
Nd1.85Ce0.15Cu1O4.037,89
Y5Os4Ge10,89
C1Nb2,89
Nb0.19Ti0.74Zr0.07,89
Nb3Al0.3Ge0.7,89
B2Nb0.84,89
B2.1Nb1,89
Mo1.8Rh0.2B1C1,89
Ca1Fe0.93Co0.07F1,89
Sr2Ca12Cu24O41,89
Al2C1Mo3,89
Fe1Se0.1Te0.9,89
Nb5Ir1.4Pt1.6O1,89
Ba1Fe2As0.4P1.6,89
Ba1Fe2As1.22P0.78,89
La1Bi1S2F0.5O0.5,89
Ir0.37Rh0.57Se2,89
Nb0.99Ta0.01,89
Pr1Fe0.85Co0.15As1O1,89
Cu0.3Zr1Te1.2,89
N1Zr1,88.95
Nb0.36Ti0.64,88.91
Ta0.462Ti0.538,88.9
Nb0.36Ti0.64,88.9
Y0.28Er0.72Rh4B4,88.9
Cu0.7In0.01Nb0.29,88.9
Y0.7Tb0.3Ni2B2C1,88.9
Nb0.992O0.008,88.9
Er0.97Tm0.3Rh4B4,88.85
Nb0.98Ta0.02,88.8
Re0.8Mo0.2,88.8
B2.2Nb1,88.8
Nb5Ir2Pt1O1,88.7
Fe1Se1S0,88.7
Y0.4Pr0.6Ba2Cu3O6.95,88.7
La1.882Ba0.118Cu1O4,88.7
Bi2Sr2Ca0.4Y0.6Cu2O8,88.7
La1.95Sr0.05Cu1O4,88.6
Pr1.9Ce0.1Cu1O3.98,88.6