formula,Tc,type
B0.73Lu3.29Ni2.05,4.0,original
Si0.25W1.31,4.0,original
Ir3.36S4.3Zn0.42,4.0,original
Ir3.36S4.3Zn0.48,4.0,original
Ge1.15Pt1.07Y2.04,4.0,original
B2.51Re10.34,4.0,original
Cr0.48Ru8.24,4.0,original
Cs0.99F0.67Li0.27O0.15W5.25,4.0,original
La1.04Pb9.62,4.0,original
Ca4.78Pb61.52Rh10.81,4.0,original
Th0.64Zr2.93,4.0,original
Nb1.1S1.02,4.0,original
Ge2.41Mo6.09,4.0,original
Ge1.99Pd1.94Y4.44,4.0,original
Fe1.02La1.11P1.78,4.0,original
B5.18Y1.8,4.0,original
Co0.84Zr2.87,4.0,original
Ir5.11Lu6.67Si1.59,4.0,original
In0.24Sn0.6Te2.25,4.0,original
Nb1.1Os3.03Si0.25,4.0,original
Au7.67Be0.93,4.0,original
Bi0.12Pb5.72Pd1.94,4.0,original
Bi0.8Pb4.43Pd1.94,4.0,original
Cd0.18In1.65,4.0,original
Ni0.63Zr2.43,4.0,original
V0.72,4.0,original
Hg21.96Zr3.7,4.0,original
La0.99Lu0.2,4.0,original
As1.35Ba0.64Ni4.79P0.2,4.0,original
Cd0.3In1.63,4.0,original
Al2.03La1.11,4.0,original
Hg29.31K5.32,4.0,original
La1.07Pt2.29Si0.25,4.0,original
As1.32Ba0.64Ni4.79P0.26,4.0,original
Bi3.16Nb0.21Se1.77,4.0,original
Sn0.2,4.0,original
Ta10.6,4.0,original
H0.22Ta4.81,4.0,original
Ti3.89,4.0,original
Bi1.47F2.5La0.54S2.07Sm2.65,4.0,original
Bi3.16Eu20.66F20.82S2.07Se1.15,4.0,original
Cd0.42In1.61,4.0,original
Bi1.47Ce3.41F3.55Nd1.84S2.07,4.0,original
Br5.5C0.24Cl12.31Y4.44,4.0,original
Ta0.26Zr3.43,4.0,original
La1.11Pd1.53Sb2.38,4.0,original
Pb3.65Se3.09Ti8.52,4.0,original
C0.24La1.1Ni2.3,4.0,original
Se0.54Sn0.78,4.0,original
Pd3.98Sn0.78Y2,4.0,original
B1.62Dy7.81Ni4.79Tb3.44,4.0,original
Al0.14Ca1.05Ga0.87Si0.25,4.0,original
Ge1.57Pd3.84Sr1.46,4.0,original
C0.24La1.11Ni2.05,4.0,original
As1.3Ba0.64Ni4.79P0.3,4.0,original
Al0.26La0.66,4.0,original
La1.09Ru5.45,4.0,original
La1.11Pt2.05Si0.25,4.0,original
Ge1.57Pd3.82Sr1.46,4.0,original
In1.32Tl0.78,4.0,original
B0.73W10.56,4.0,original
Ir1.28Os3.66Th3.56,4.0,original
Ge1.57Pd3.86Sr1.46,4.0,original
B3.4Ir6.85Lu1.59Y0.85,4.0,original
Co2.14Ni1.06Zr7.55,4.0,original
Zr3.19,4.0,original
B0.55Lu3.29Ni2.3,4.0,original
Ca1.05Si0.48,4.0,original
Rh10.81Sn16.67Y9.22,4.0,original
Ir10.33Lu13.45Sn16.67,4.0,original
Au2.47La0.64,4.0,original
Bi4.85Rh1.7,4.0,original
Ir1.62Mo3.59,4.0,original
H4.79N1.86O0.2W5.25,4.0,original
Mo6.09S6.54Zn2.02,4.0,original
In1.68Mg6.46,4.0,original
Si0.58Th3.56,4.0,original
B1.62Co0.68Ni4.57Tm7.72,4.0,original
As9.72La1.11Os12.44,4.0,original
Ba4.85K15.67Si15.36,4.0,original
Mo7.34Pb3.13S4.3Se2.38,4.0,original
Au4.57B1.62Nd4.84Pt3.5,4.0,original
Ti4.1,4.0,original
As0.65Hf9.88Os3.03,4.0,original
Pt0.47V0.54,4.0,original
Mo1.1N5.82,4.0,original
Os12.44Si4.95Tb69.49,4.0,original
In1.68La3.98Pr0.44,4.0,original
Al0.98Hf7.39Pd3.98Y0.25,4.0,original
O0.48Ru2.65Sr3.22,4.0,original
Ir5.11Lu6.34Sc0.44Si1.59,4.0,original
Ge1.57Ni0.31Pd3.57Sr1.46,4.0,original
Ir0.81Rh0.64Te4.87,4.0,original
Ba3.88Ge23.34Ir13.81,4.0,original
In0.11Pb1.33Sn0.29Te2.37,4.0,original
Ag1.2Ba0.64Si0.48,4.0,original
Au2.24Ba0.64Si0.48,4.0,original
Ag0.78Ba0.64Si0.52,4.0,original
Bi3.38F0.77S2.07,4.0,original
As0.65Ru2.65Zr3.7,4.0,original
As0.65Hf9.88Zr3.7,4.0,original
Bi3.16Nd4.84Pd1.47,4.0,original
Bi1.3Pb0.21Pd1.94,4.0,original
Se1.15Ta5.56,4.0,original
Pd1.94S5.42Ta10.6,4.0,original
Ce4.31Ru5.45,4.0,original
B0.73Li14.58Pt7.15,4.0,original
In1.29Tl0.87,4.0,original
Ca1.05Pb1.83Tl10.78,4.0,original
Nb2.37Pd1.94S4.58Se0.39,4.0,original
Ir5.11La0.97Th0.28,4.0,original
Ga0.76Si0.35Sr1.46,4.0,original
S5.42Sr1.46Ta10.6,4.0,original
Ir1.97Os2.4Th3.56,4.0,original
Ge1.57Pd3.9Sr1.46,4.0,original
C0.24Y1.8,4.0,original
Ru2.65Si0.25Ta5.24,4.0,original
Bi6.54Rh1.7,4.0,original
C0.24La1.11Ni2.18,4.0,original
B5.18La3.98Ru22.24,4.0,original
Bi1.47Ce4.61F3.55Nd0.84S2.07,4.0,original
Ba0.64S5.42Ta10.6,4.0,original
Rh10.81Sn15.78Tm10.83Y8.27,4.0,original
Rh10.81Sn15.78Y11.62,4.0,original
Ba0.59Na0.14Sb2.38Ti8.52,4.0,original
Pt12.01Th3.56,4.0,original
Fe3.58Si1.59Tm15.5,4.0,original
Hf9.88P2.61S0.45,4.0,original
Cr0.35Re0.33,4.0,original
Co1.57Zr2.25,4.0,original
B0.73Ta10.6,4.0,original
Ba8.19Ge14.97Si9.31,4.0,original
Ru1.18V0.36,4.0,original
H2.08Nb0.75Pd0.47,4.0,original
Ge1.57Pd3.98Sr1.46,4.0,original
La1.11Ru8.03Si0.58,4.0,original
Bi1.47Ce2.81F5.12S0.95Se0.54Sr0.58,4.0,original
Ru0.55Zr2.74,4.0,original
Pb3.13S3.19Ta5.24,4.0,original
In0.16Pb0.43Sn0.49Te2.37,4.0,original
Bi1.47F2.5La0.68S2.07Sm1.96,4.0,original
Ca1.05Si0.5,4.0,original
Ni0.72Zr2.29,4.0,original
Al0.98Nb3.63,4.0,original
Au7.67Pb6.37,4.0,original
B0.73Hf9.88,4.0,original
Cr0.48,4.0,original
Sc4.8,4.0,original
Ge0.4Pd0.71,4.0,original
B1.62Dy10.45Ni4.77,4.0,original
B1.62Co0.32Er7.65Ni4.54,4.0,original
F0.67Li0.27O0.15Rb0.49W5.25,4.0,original
Ir6.85Si3.27Y11.62,4.0,original
Ir0.23Ru4.89Th3.56,4.0,original
Si0.58Sr1.46,4.0,original
In1.68Ti8.52,4.0,original
Rh3.52Si0.58Y2.04,4.0,original
In1.68Pd3.98Zr3.7,4.0,original
La3.98Rh7.17Sn11.37,4.0,original
Ir4.58Lu6.67Rh0.42Si1.59,4.0,original
Ir5.11Lu6.4Sc0.34Si1.59,4.0,original
Bi1.47F1.45La1.11S2.07,4.0,original
As0.65Ir1.62La1.11,4.0,original
Bi1.47F5.12La0.33S2.07Sr0.66,4.0,original
Bi1.47F2.5La0.76S2.07Y0.25,4.0,original
In0.24Sn0.6Te2.37,4.0,original
Bi2.49Pb1.18Pd1.94,4.0,original
Nb1.1Se1.77Sn0.78,4.0,original
B3.4Ir6.15Rh0.6Sc1.44Y1.32,4.0,original
Pb3.55S3.33Ta5.24,4.0,original
Pa67.95,4.0,original
B3.4Ir3.36Lu3.29Rh3.52,4.0,original
Pd0.29Ti3.37,4.0,original
Ce1.55Ir5.11La0.7,4.0,original
Ga1.1,4.0,original
Nb0.4Rh0.88,4.0,original
Nb0.97Rh1.88,4.0,original
B3.4Ir6.85Lu1.93Y0.61,4.0,original
B0.73Li14.58Pd0.88Pt5.98,4.0,original
Ir1.57Te4.87,4.0,original
Nb0.47Os1.46,4.0,original
Pd3.98Sn0.78Tm5.77Y0.25,4.0,original
Ni0.54Zr2.57,4.0,original
Ni0.38Zr2.82,4.0,original
La0.9,4.0,original
B3.4Ir6.85Lu1.25Y1.09,4.0,original
Na0.74O0.2W5.25,4.0,original
Lu3.29Pd3.98Sn0.78,4.0,original
B0.73Mo2.03Ta1.22,4.0,original
Nb0.47Sb0.22Ti0.94,4.0,original
Bi1.47Nb3.63,4.0,original
Ir3.36S4.3Zn0.58,4.0,original
Co2.14Fe0.38U21.67,4.0,original
La0.97Ru5.45Th3.2,4.0,original
Ir5.11Si1.59Y4.44,4.0,original
H1.61Nb0.71Pd0.53,4.0,original
Ir5.11Th3.56,4.0,original
S0.28Se0.91Ta5.24,4.0,original
La1.06Pt2.29Si0.25,4.0,original
B3.4Ir6.85Lu2.61Y0.13,4.0,original
Bi1.47F5.12La0.4S2.07Sr0.58,4.0,original
La1.06Sn2.54,4.0,original
Ce0.41Ge9.94Pr0.67Pt9.58,4.0,original
As1.47Cd11.81Ge0.73,4.0,original
Os0.68W3.92,4.0,original
Au3.79Pb6.37Pd0.92,4.0,original
Pt0.66W3.49,4.0,original
Au15.42In1.68Sc4.95,4.0,original
Ba0.64Si0.52,4.0,original
Bi1.47Ce2.81Eu3.35F5.12S1.62Se0.17,4.0,original
Mo0.97,4.0,original
Ce0.41La0.97Ru5.45,4.0,original
Pb6.37Pd1.94,4.0,original
B3.4Ir6.15Rh0.6Sc0.94Y1.56,4.0,original
B3.4Ir6.15Rh0.6Sc2.44Y0.85,4.0,original
Bi1.47F2.5La1.11S0.5Se0.79,4.0,original
Cu0.12La2.29O0.48,3.0,original
Bi3.16Cu0.13O1.08Sr3.22,3.0,original
Ca12.24Cu14.61O10.8Sr19.08,3.0,original
Co4.41H9.43Na1.22O0.28,3.0,original
Ce0.77Cu0.13La2.32O0.48,3.0,original
Ca1.05Si0.45,3.0,original
S5.6Sb1.34Ta10.6,3.0,original
O0.18Rb1.47W5.25,3.0,original
Rb1.82S2.07Ta5.24,3.0,original
Co4.41Zr7.55,3.0,original
Ni0.41Zr2.77,3.0,original
Mo7.34Se3.61Te4.87,3.0,original
Ag4.11Bi3.16,3.0,original
Au3.79Rh0.6Ti3.8,3.0,original
B5.18Nd4.84,3.0,original
Ba0.64,3.0,original
Co2.14Fe0.38U21.67,3.0,original
Ni1.68U21.67,3.0,original
Ir0.75Te1.13,3.0,original
Mo6.09S6.54Zn2.02,3.0,original
Nb0.91Rh0.15,3.0,original
Os6.17Zr3.7,3.0,original
Pt2.29Zr3.7,3.0,original
Re35.59Zr19.11,3.0,original
Nb0.91Rh1.97,3.0,original
Au7.67Nb2.68V0.54,3.0,original
Bi3.16Ir1.62,3.0,original
N5.26Zr3.7,3.0,original
Os3.03W15.87,3.0,original
Eu6.81Nd9.83S5.42,3.0,original
C0.24La1.11Ni2.3,3.0,original
B1.62Ho10.2Ni4.79,3.0,original
Ir3.36S4.3Zn0.58,3.0,original
Mo4.84P5.5,3.0,original
Ge2.41Pd1.94Y4.44,3.0,original
Ir6.85Si3.27Y11.62,3.0,original
Os12.44P22.25Y2.04,3.0,original
Al0.24Ca1.05Ga0.76Si0.25,3.0,original
Co8.5Cu0.13S4.3,3.0,original
Mn1.39Ti3.75,3.0,original
Re1.4,3.0,original
Ta3.63V0.18,3.0,original
As0.65Ga1.1,3.0,original
Pd0.41Zr2.74,3.0,original
Ir6.85Lu16.77Si3.27Yb0.12,3.0,original
La1.11Ni2.3P1.78,3.0,original
Ba0.64Ni4.79P3.64,3.0,original
N5.82Ni7.28Zn2.02,3.0,original
In1.68N5.82,3.0,original
S2.07Ta5.24,3.0,original
Cu0.13La2.37O0.48,3.0,original
Fe1.02Te2.37,3.0,original
Al0.19Zr1.39,3.0,original
Ca1.05Ir1.62Si0.92,3.0,original
P1.78Ru2.51Zr3.7,3.0,original
Bi1.47Ce5.81F2.5S2.07,3.0,original
Bi1.47F2.5La1.11S2.07,3.0,original
Te7.36Zr3.7,3.0,original
As1.47Fe2.3K5.32,3.0,original
Ge1.57Pd3.98Sr1.46,3.0,original
Ir0.75Pt1.07Te4.87,3.0,original
Bi6.37O0.48S3.19,3.0,original
Ir1.55Te4.87,3.0,original
Ba0.43K0.96Sb2.38Ti8.52,3.0,original
Bi1.47Ce3.41F2.5Nd1.84S2.07,3.0,original
Al8.33Ba8.19Si12.67,3.0,original
Bi1.47F2.5La1.11S1.4Se0.29,3.0,original
La3.98Rh3.52Sn11.37,3.0,original
Bi5.87Ce5.81Pb1.18Te14.85,3.0,original
Bi5.7Ce5.81Pb1.51Te14.85,3.0,original
Bi5.53Ce5.81Pb1.83Te14.85,3.0,original
Ba0.64Si0.48,3.0,original
Bi3.16F0.93S2.07,3.0,original
Co31.68Y21.19,3.0,original
Bi1.47Ce5.81S2.07,3.0,original
La1.11Ru8.03Si0.58,3.0,original
As0.65FeLi7.24,3.0,original
Bi1.47Eu3.35F5.12La0.4S1.62Se0.17,3.0,original
Bi3.16Se1.77,3.0,original
Rh10.81Sn15.78Y11.62,3.0,original
C0.24Ce5.81Ni2.3,3.0,original
Eu6.81Nb2.37S5.42,3.0,original
Pb6.37Pd1.94,3.0,original
S2.07Sn0.78Ta5.24,3.0,original
As0.65Ta5.24,3.0,original
Nb1.1Se1.15,3.0,original
Ba0.32Bi1.47K1.5O0.2,30.0,original
Ba0.64Cu1.39Dy10.45O1.23Sr1.46,30.0,original
Ba1.35Cu1.39La1.47O1.32,30.0,original
La2.05O0.48Sr0.31Ti0.29,30.0,original
B1.51Li0.71Mg2.81,30.0,original
As1.06Ba0.64Fe2.3P0.85,30.0,original
Ba1.72Cu1.37O1.16Y2.04,30.0,original
Cu0.76Gd8.95O1.59Ru2.44Sr3.22,30.0,original
Fe2.1K1.23Se1.15Tl3.28,30.0,original
As0.83Fe2.3P1.37Sr1.46,30.0,original
Ce0.47Cu0.13La2.39O0.48,30.0,original
As1.47Ba0.16Fe2.3K2.32,30.0,original
Cu0.13La2.39O0.48,30.0,original
Cu0.13La2.43O0.48,30.0,original
Cu0.13La2.55O0.49,30.0,original
Ba0.64Cu1.08Fe0.38O1.43Sr1.46Yb9.91,30.0,original
As1.47Fe2.3K3.14,30.0,original
La2.33Mg0.21O0.48,30.0,original
Cu0.13La0.47O0.48Pr0.98,30.0,original
C10.41Cs10.49H43.78N23.57Na7.87,30.0,original
Al0.14B1.62Mg2.51,30.0,original
Cs8.38Fe2.3Se1.13,30.0,original
As0.9Fe2.3P1.22Sr1.46,30.0,original
Cu0.13La2.4O0.47,30.0,original
C10.41Cs31.6,30.0,original
Ba0.23Bi1.47K1.94O0.2,30.0,original
Ba0.23Bi1.47K1.94O0.22,30.0,original
Cu0.13La2.25Nd0.25O0.48,30.0,original
C10.41Cs12.6Tl10.78,30.0,original
Cu0.76Eu6.81O1.59Ru1.81Sn0.16Sr3.22,30.0,original
B1.62Mg3.01,30.0,original
Fe2.3K4.23Se1.13,30.0,original
Fe1.82Rb4.3Se1.15,30.0,original
As0.4F0.41Fe1.02Nd4.84P0.47,30.0,original
Ba1.72Co1.23Cu1.2Eu6.81O1.3,30.0,original
Cu0.13La2.17Nd0.43O0.48,30.0,original
Cu0.13La2.17Nd0.42O0.48,30.0,original
As0.65F0.41Fe1.02La1.11,30.0,original
As1.47Ba0.27Fe2.3Na1.33,30.0,original
As14.67Ca9.75Fe12.15La2.55Pt7.88,30.0,original
Ba0.32Bi1.47K3.14O0.2,30.0,original
As0.65F0.46Fe1.02La0.83Y0.13,30.0,original
As3.12Ca1.05Fe4.77K5.32,30.0,original
Cu0.13La2.39O0.47,30.0,original
Ba1.72Cu1.39O1.32Pr0.32Y0.97,30.0,original
Cu0.76Gd8.95O1.59Ru2.44Sr3.22Ti0.18,30.0,original
B1.35Mg3.17,30.0,original
Cu0.13Eu6.86La0.82O0.48,30.0,original
Cs8.38Fe1.92Se1.15,30.0,original
Cs8.38Fe2.3Se1.15,30.0,original
As0.48F0.41Fe1.02P0.29Pr0.75,30.0,original
Cu0.13La2.28O0.48,30.0,original
Ba0.21Bi1.47K2.05O0.2,30.0,original
As0.95Ba0.64Fe2.3P1.11,30.0,original
Ba1.72Cu1.24O1.31Y2.04Zn0.46,30.0,original
Cu0.13La2.26O0.48,29.0,original
Ba0.21Bi1.47K2.05O0.2,29.0,original
Cu0.13La2.33O0.48,29.0,original
Cu0.13La2.4O0.48,29.0,original
Cu0.13La2.34O0.48,29.0,original
C10.41Rb17.22,29.0,original
C10.41Rb11.45,29.0,original
C10.41Rb22.99,29.0,original
Cu1.17Mo0.28O1.37Sr3.22Y2.04,29.0,original
Ba3.88Cu3.91Dy20.98O3.44,29.0,original
Ba1.72Cu1.33O1.23Y2.04,29.0,original
Bi3.08Cu0.13F1.98La0.25O0.98Sr2.6,29.0,original
Ba1.72Cu1.39Nd4.84O1.22,29.0,original
Ba0.24Bi1.47K1.89O0.2,29.0,original
Cu0.13La2.17Nd0.43O0.48,29.0,original
Cu1.19O1.37Sr3.22Y2.04,29.0,original
Ba1.72Cu2.02O1.59Pr0.52Y0.37,29.0,original
Cu0.13La2.32O0.48,29.0,original
Ba1.72Cu1.33O1.27Sm6.8Zn0.17,29.0,original
Cu0.13La2.3O0.48,29.0,original
Cu0.13La2.23O0.48,29.0,original
Cu0.13La2.28O0.48,29.0,original
Cu0.13La2.26O0.46,29.0,original
Cu0.13La2.42O0.48,29.0,original
Ba1.29Cu1.39Eu4.04O1.31Pr0.28Sr0.4,29.0,original
Ba1.08Cu1.39Eu6.81O1.29Pr0.21Sr0.22,29.0,original
Ba0.26Bi1.47K1.81O0.2,29.0,original
Ba0.21Bi1.47K2.05O0.19,29.0,original
Cu0.12La2.29O0.48,29.0,original
Ba0.21Bi1.47O0.2Rb2.22,29.0,original
Cu0.13La2.05Nd0.84O0.48,29.0,original
C10.41Cs31.6Hg24.16,29.0,original
Al0.14B1.62Mg2.51,29.0,original
Ce0.29Cu0.13La2.43O0.48,29.0,original
Ce0.47Cu0.13La2.39O0.48,29.0,original
Cu0.13La2.43O0.48,29.0,original
Cu0.13La2.37O0.48,29.0,original
As1.47Ba0.64Fe2.3,29.0,original
As1.47Eu6.81Fe2.3,29.0,original
As0.65Ca1.05F5.12Fe1.02,29.0,original
Co0.14La2.07O0.48Sr0.28,29.0,original
As1.47Fe2.3Mg1.86O1.03Sr6.74Ti5.92,29.0,original
As1.14Eu6.81Fe2.3P0.66,29.0,original
Fe2.3K4.56Se1.04,29.0,original
Ca1.05,29.0,original
Cs9.01Fe1.87Se1.15,29.0,original
As1.13Eu6.81Fe2.3P0.7,29.0,original
As0.65Fe1.02H1.21La1.11,29.0,original
As0.65F0.93Fe1.02Sm6.8,29.0,original
As0.65Ca1.05F4.07Fe1.02H0.66,29.0,original
As0.65F0.46Fe1.02La1.11,29.0,original
As0.65Fe1.02Th3.56,29.0,original
As3.12Cs10.49Eu6.81Fe4.86,29.0,original
Cu0.13La2.36O0.48,29.0,original
Ba1.72Cu1.39O1.3Pr0.36Tm3.83,29.0,original
Cu0.13H0.29La2.4O0.48,29.0,original
As1.47Ca0.98Fe2.3,29.0,original
Cu0.13La0.83O0.46Sm6.8,29.0,original
Ba0.2Bi1.47K2.14O0.2,29.0,original
B1.44Mg3.17,29.0,original
As0.93Ba0.64Fe2.3P1.14,29.0,original
As1.33Ca1.05Fe2.3P0.23,29.0,original
Cu0.13La1.4O0.77Pb1.83Sr1.11,29.0,original
As1.47Eu3.77Fe2.3K2.27,29.0,original
As1.47Fe2.3K3.14,29.0,original
As1.47Fe2.3Na2.32,29.0,original
As0.65Fe1.02H0.22La1.11,29.0,original
As1.47Eu6.81Fe1.53P1.03,29.0,original
Ba1.72Cu1.39Er3.78O1.31Pr0.36,29.0,original
B1.62Mg2.19Zn0.27,29.0,original
La2.28O0.48,29.0,original
As0.57F0.93Fe1.02La1.11,29.0,original
Ba1.72Cu1.39O1.31Pr0.36Y0.85,29.0,original
Ca1.67Cl16.44Cu0.13Na1.93,29.0,original
Ba1.72Cu1.39O1.2Pr0.21Y1.32,29.0,original
Ba0.26Bi1.47K1.83O0.2,29.0,original
Bi3.16Cu0.13La0.5O1.03Sr2.22,29.0,original
B1.46Li0.63Mg2.84,29.0,original
As0.65F0.41Fe1.02La1.11,29.0,original
Ba1.72Cu1.95Ni0.11O1.59Y2.04,29.0,original
As1.47Ba0.37Fe2.3K1.23,29.0,original
As0.65F0.46Fe1.02La0.83Y0.13,29.0,original
Bi2.32Cu0.13La0.25O1.05Pb1.51Sr2.52,29.0,original
Cu0.12La2.38O0.48,29.0,original
Cu0.89Gd8.95O1.59Ru2.09Sr3.22,29.0,original
Cu0.13Ho0.36La2.2O0.48,29.0,original
Cu0.76Eu6.81O1.59Ru2.37Sr3.22,29.0,original
As0.65Fe1.02La1.11,29.0,original
As1.47Ba0.1Fe2.25K2.59Mn0.52,29.0,original
La2.1O0.48Sr0.24,29.0,original
Fe2.02K1.89Se1.15Tl2.73,29.0,original
As14.67Ca10.71Fe12.54Nd5.99Pt7.15,29.0,original
As3.12Ca2.29Cs10.49F10.35Fe4.86,29.0,original
Ba1.13Ca0.18Cu1.39La1.47O1.31,29.0,original
Cu0.13La2.29O0.48,29.0,original
B1.17Mg3.17,29.0,original
La2.25O0.48,29.0,original
Fe2.3K4.23Se1.15,29.0,original
Ba1.72Cu1.39O1.3Pr0.36Y0.85,29.0,original
As1.47Ba0.21Fe2.3K2.05,29.0,original
Al2.03As1.47Ca4.78Fe2.3O1.03,29.0,original
As0.65Ca0.92Fe1.02H3.58,29.0,original
As3.12Ca1.05Fe4.77K5.32,29.0,original
Ba1.51Cu1.39O1.2Y2.04,29.0,original
Ba1.72Cu1.39O1.12Y1.8,29.0,original
Cu0.13La1.4O0.83Pb1.83Sr1.11,29.0,original
Cu0.13La1.26O0.8Pb1.51Sr1.28,29.0,original
B1.62Mg2.97,29.0,original
As1.47Ca0.81Fe1.02,29.0,original
As14.67Ca10.26Fe12.54Nd7.79Pt7.15,29.0,original
Cu0.13La2.33O0.48,28.0,original
Ba2.8Cu3.28La1.11O3.31Y4.44,28.0,original
Cu0.13La2.55O0.51,28.0,original
Ba1.72Cu1.39O1.12Y2.04,28.0,original
Ba0.4Bi1.47K1.12O0.2,28.0,original
Ba0.21Bi1.47K2.05O0.2,28.0,original
Bi2.15Cu0.13La0.25O1.05Pb1.83Sr2.52,28.0,original
Cu0.13La2.55O0.48,28.0,original
Ba0.64Ca1.05Cu1.2La1.11Ni0.56O1.27,28.0,original
C10.41Rb17.22,28.0,original
Cu1.2O1.28Sr3.22W1.53Y2.04,28.0,original
Cu0.13F1.45Nd9.83O0.39,28.0,original
Cu0.13La2.29O0.47,28.0,original
Ba1.29Cu1.39Eu9.58O1.36,28.0,original
Cu0.13La2.4O0.48,28.0,original
Cu0.13La2.45Na0.23O0.48,28.0,original
Bi3.08Cu0.13O0.48Pr0.13Sr2.96,28.0,original
Cu0.13La2.26O0.48,28.0,original
Ba0.64Bi1.47K5.32O0.2,28.0,original
Ba0.1Cu1.27O1.31Sr2.34Y1.56,28.0,original
Ba0.64Ca1.05Cu1.32La1.11O1.31,28.0,original
Cu0.13La0.97O0.8Pb1.83Sr1.63,28.0,original
Cu0.13La1.11O0.8Pb1.51Sr1.46,28.0,original
Cu0.13La1.4O0.8Pb1.51Sr1.11,28.0,original
Ba0.64Ca1.05Cu1.39La0.54O1.31Pr0.44,28.0,original
Cu0.76N1.68O2.15Pb1.51Sr6.74Tl2.14,28.0,original
Cu0.13La1.11O0.48Pr0.63,28.0,original
Cu0.13La1.07O0.48Pr0.63,28.0,original
Ba1.72Cu1.2Dy8.34O1.25Zn0.58,28.0,original
Ba1.72Cu1.35O1.23Y2.04Zn0.11,28.0,original
Ba1.72Cu1.34O1.27Y2.04Zn0.13,28.0,original
Cu0.13La2.55O0.49,28.0,original
Ce2.81Cu0.76Nb1.1O2.15Pr1.14Sr3.22,28.0,original
Cu0.13La1.9Nd1.34O0.48,28.0,original
Cu0.13La2.36O0.48,28.0,original
Ba1.72Cu1.39O1.16Tm7.72,28.0,original
Ba1.4Cu1.39Eu4.04O1.29Pr0.28Sr0.22,28.0,original
Ba1.18Cu1.39Eu6.81O1.26Pr0.21,28.0,original
Ba1.72Cu0.12Hg7.24O0.48,28.0,original
Ce2.81Cu0.76Nb1.1Nd7.34O2.15Sr3.22,28.0,original
Ba1.45Cu1.39Gd11.21O1.31,28.0,original
Ca0.12Cu0.76Ga1.1O1.31Sr3.22Tm5.77,28.0,original
Ca1.86Cl16.44Cu0.13Na1.33,28.0,original
Al0.19B1.62Mg2.35,28.0,original
C10.41H10.89K16.22N5.82,28.0,original
B1.44Mg3.17,28.0,original
B1.5Mg3.17,28.0,original
Bi0.63Cu0.76La1.83O1.04Sr1.46,28.0,original
As0.65F0.46Fe1.02La1.11,28.0,original
As0.65F0.67Fe1.02La0.9Na0.54,28.0,original
As0.65F0.41Fe1.02La1.11,28.0,original
As1.47Fe2.3Mg1.2O1.03Sr6.74Ti6.79,28.0,original
As1.18Eu6.81Fe1.02P0.58,28.0,original
Fe2.1K1.72Se1.15Tl1.91,28.0,original
As1.47Fe2.3O1.59Sc8.96Sr6.74Ti5.06,28.0,original
Fe1.92K1.5Se1.15Tl1.69,28.0,original
As1.47Ca0.79Fe1.02,28.0,original
As14.67Ca10.31Fe12.54Pt7.15Sm10.61,28.0,original
As1.47Ca0.76Fe1.02,28.0,original
As1.47Ca0.81Fe1.02,28.0,original
As0.46Fe1.02H0.33P0.34Sm6.8,28.0,original
As0.32F0.41Fe1.02Nd4.84P0.66,28.0,original
Fe1.79Rb4.24S0.39Se0.85,28.0,original
Ba0.27Bi1.47K1.78O0.19,28.0,original
Cu0.13La2.42O0.48,28.0,original
As0.98Fe2.3P1.03Sr1.46,28.0,original
As14.67Ca11Fe12.54La1.11Pt7.15,28.0,original
As0.65F0.46Fe1.02La0.78Y0.2,28.0,original
Cu0.13Nd6.84O0.48,28.0,original
Cu0.13La2.37O0.48,28.0,original
As0.65F0.15Fe1.02La1.11,28.0,original
Ba1.72Cu1.27O1.25Y2.04,28.0,original
Ba1.72Cu1.39Dy5.18O1.28Pr0.36,28.0,original
Ca1.79Cl16.44Cu0.13Na1.53,28.0,original
Cu0.13La1.26O0.82Pb1.83Sr1.28,28.0,original
Ba1.72Cu1.39O1.27Pr0.28Y1.09,28.0,original
As0.65Fe1.02La1.11,28.0,original
Ba0.24Bi1.47K1.89O0.2,28.0,original
Ba1.72Cu1.97O1.59Y2.04Zn0.13,28.0,original
Ba1.72Ca0.19Cu1.39O1.03Y1.3,28.0,original
Ca1.92Cl16.44Cu0.13Na1.14,28.0,original
Ca2.06Cl16.44Cu0.13Na0.7,28.0,original
Ba0.21Bi1.47K2.05O0.18,28.0,original
Bi3.16Cu0.13La0.25O1.12Sr2.52,28.0,original
As1.47Eu4.32Fe2.3K1.83,28.0,original
As0.65Ce5.81F0.3Fe1.02,28.0,original
Cu0.13La2.38O0.48,28.0,original
Cu0.13La2.26O0.47,28.0,original
Ba0.24Bi1.47K1.91O0.2,28.0,original
Ba1.72Cu2.02Eu3.35O1.59Pr0.36,28.0,original
Cu0.13La2.27Nd0.25O0.48,28.0,original
Cu0.13La2.3O0.48,28.0,original
Cu0.13La1.76Nd1.84O0.48,28.0,original
Cu0.76Gd8.95O1.59Ru2.65Sr3.22,28.0,original
Ca2.04Cl16.44Cu0.13Na0.74,28.0,original
B1.53Mg3.17,28.0,original
As0.65F0.46FeLa1.11,28.0,original
As0.65Fe1.02H0.48La1.11,28.0,original
As1.47Ba0.37Fe2.3K1.23,28.0,original
Ba1.72Cu1.39O1.27Pr0.21Y1.32,28.0,original
Cu0.13La2.23O0.48,28.0,original
Cs8.38Fe2.3Se1.13,28.0,original
As1.47Ba0.64Fe2.05Ir0.23,28.0,original
Ba0.19Bi1.47K2.19O0.2,28.0,original
Ba0.28Bi1.47K1.7O0.19,28.0,original
Cu0.13Ho0.36La2.2O0.48,28.0,original
Ba1.72Cu1.39O1.17Pr0.21Y1.32,28.0,original
Cu0.1La2.33Li0.27O0.48,28.0,original
Cu0.13H0.62La2.26O0.48,28.0,original
B1.48Mg3.17,28.0,original
Ca2.07Cl16.44Cu0.13Na0.66,28.0,original
Ba1.72Cu1.39O1.22Pr0.36Y0.85,28.0,original
Cu0.13La2.05Nd0.84O0.48,28.0,original
Cu0.13La2.43O0.48,28.0,original
Cu0.13La2.05Nd0.84O0.47,28.0,original
Al0.15B1.62Mg2.48,28.0,original
Al0.24B1.62Mg2.19,28.0,original
As0.65F0.46FeMn0.24Nd4.84,28.0,original
As0.65F5.12Fe1.02La0.25Sr0.75,28.0,original
Ba1.72Cu1.2O1.31Y2.04Zn0.58,27.0,original
Ba0.21Bi1.47K2.05O0.2,27.0,original
Bi3.16Ce1.97Cu0.76Eu11.24O2.22Sr3.22,27.0,original