formula,Tc
Ce0.3Pr0.7Bi1S2O1,1.91
Mo0.5Rh0.5,1.91
U0.88Mo0.12,1.9
Mo1Te1.7Se0.3,1.9
Rb0.27W1O3,1.9
K1Hg1C8,1.9
C2Li1,1.9
Au1Ga2,1.9
Ba0.13O3W1,1.9
Ga2Pt1,1.9
Ge1Nb2,1.9
Mn0.02Ti0.98,1.9
S1Y1,1.9
Sn0.35Te0.65,1.9
Ba0.13W1P3,1.9
Nb3Rh0.9Co0.1,1.9
Ir1Nb3,1.9
S2Ta1,1.9
Tm5Ir4Si10,1.9
Ho1Ir3.6Rh0.4B4,1.9
Cr0.2V0.8,1.9
Hf0.9Rh0.1,1.9
Rh0.03Ti0.97,1.9
Sc4Rh6Sn19,1.9
In1Y1Au2,1.9
Se3Ta1,1.9
Nb0.76Pd0.24,1.9
Th3Rh4Sn13,1.9
Sc4Rh6Ge19,1.9
Ga9Rh2,1.9
La1Rh1Sn1,1.9
Ni0.06Ta1S2,1.9
U1Pd2Al3,1.9
K0.8Fe2Se0.42S1.58,1.9
Sn0.95In0.038Te1,1.9
Sn0.915In0.073Te1,1.9
Sn3Zr5,1.9
Lu1Pt2Si2,1.9
Ce0.95Nd0.05Co1In5,1.9
Sr1Pd2Sb2,1.9
La0.99Ce0.01Ni1C2,1.89
U0.85Nb0.15,1.89
U1Be12.99B0.01,1.89
Ce1Rh0.07Co0.93In5,1.89
Pd0.95Te2,1.89
Pd1Te2.1,1.89
Nb0.6Os0.4,1.89
U1Pd2Al3,1.89
Li0.9Mo6O17,1.89
Lu4.5Ho0.5Ir4Si10,1.89
Cr0.055V0.945,1.89
Nb0.72Pd0.28,1.89
Au0.332Te0.668,1.89
La0.997Gd0.003Al2,1.89
Ce1Bi1S2F0.5O0.5,1.89
Ce0.98Yb0.02Co1In5,1.88
Ba1Nb1S3,1.88
Ba0.35K0.65Bi1O3,1.88
Sn0.87Ag0.1Te1,1.88
Pd1Te1.08,1.88
Y0.5La0.5Rh3B2,1.88
C8K1Hg1,1.88
Cr0.1V0.9,1.88
La0.85Pr0.15Pb3,1.88
Os0.084Re0.916,1.88
U1.01Pd2Al3,1.88
Ru0.77Rh0.23As1,1.876
Y0.5La0.5Rh3B2,1.87
Os0.082Re0.918,1.87
Ge1.8La1,1.87
Sn0.63Ge0.21In0.16Te1,1.87
La0.2Th0.8,1.87
Pr1Os4Sb12,1.87
Pb0.987Tl0.013Na0.005Te1,1.87
Zr2Co0.3Ni0.7,1.87
Nb2Pd1S3.5Se1.5,1.86
La1Pt1.85Ge2.15,1.86
Ce1Co1In4.97Sn0.03,1.86
Pr1Os4Sb12,1.86
Li2B1Pt3,1.86
Fe3Th7,1.86
Ta0.84W0.16,1.86
Nb0.67V0.33N0.94,1.86
Nb0.5V0.5N0.94,1.86
Nb0.005Zr0.995,1.86
Sn0.04V0.96,1.86
La0.946Ce0.054Sn3,1.86
B1I3,1.86
Pr1Os4Sb12,1.85
Ce1Co0.95Ni0.05In5,1.85
K1Hg1C8,1.85
Ir1Mo1,1.85
La0.7Y0.3,1.85
Mo0.12U0.88,1.85
Nb0.6Os0.4,1.85
Nb0.26U0.74,1.85
Pb3Sr1,1.85
Pd0.87Te2,1.85
Pd1Te2.3,1.85
Mo0.1U0.9,1.85
La2Rh3Sn5,1.85
Hf1Os2,1.85
Nb3Se4,1.85
Au0.25Te0.75,1.85
La1Rh1Sn1,1.85
Sn0.961In0.027Te1,1.85
La1Pt1.85Ge2.15,1.85
Cs2Cr3As3,1.85
Zr1Ir1Si1,1.85
Hf1Rh0.8Pd0.2Si1,1.85
Lu1Pd1Bi1,1.845
As1Cr1,1.844
K1Fe1.932Co0.068As2,1.84
Os0.027Re0.973,1.84
Ce1Rh0.75Ir0.25In5,1.84
Pr0.95La0.05Os4Sb12,1.84
Au2Bi1,1.84
Ru2Zr1,1.84
Zr0.127Ti0.043Cu0.029Ni0.042Be0.758,1.84
Re0.994W0.006,1.84
Os0.028Re0.973,1.84
Nb0.69Pd0.31,1.84
Nb0.65Pd0.35,1.84
Ce0.965La0.035Co1In5,1.84
Ce0.916Yb0.084Co1In5,1.835
Cs1Fe2As2,1.83
Ba1Pt2Sb2,1.83
Co3Th7,1.83
Re0.67Y0.33,1.83
Re2Y1,1.83
Er1Ir3.6Rh0.4B4,1.83
Pr1Os4Sb12,1.83
Y1Fe2Ge2,1.82
Ce1Co1In4.95Cd0.05,1.82
Al0.108V0.892,1.82
Ce1Ir5,1.82
Yb1Pd2Sn1,1.82
Pr1Os4Sb12,1.82
B1Mo1.5Ta0.5,1.82
Cu0.12Ta1S2,1.82
Pd0.11Ti1Se2,1.82
Ce1Co1In4.75Zn0.25,1.81
Ce1Rh1In5,1.81
Pr1Os4Sb12,1.81
B1Mo1.5Ta0.5,1.81
Ir0.49Mo0.51,1.807
Cs1Fe2As2,1.8
Os0.02Re0.98,1.8
Sm1.85Th0.15Cu1O3.98,1.8
Pr0.98La0.02Os4Sb12,1.8
Pr0.8La0.2Os4Sb12,1.8
Rb0.5Nb1S2,1.8
La1Os4P12,1.8
C1Ir2Mo3,1.8
Cu3Sb1,1.8
Rh0.91Ti0.04Zr0.05,1.8
Mo0.025Ti0.975,1.8
Co3Th7,1.8
Tm2Rh3Sn5,1.8
Gd1Mo6S8,1.8
Mo6S8,1.8
Nb3Te4,1.8
Tb1.2Mo6S8,1.8
Pr1Ru4P12,1.8
Rh0.005Ti0.995,1.8
Y1,1.8
Cd1Mo6S8,1.8
Cu1Se1Te1,1.8
Lu4Os6Sn19,1.8
Ti0.496Zr0.504,1.8
Mg1C0.69Ni3,1.8
Al1,1.8
Bi1.09Ta1Se3.09,1.8
Bi1.09Ta2Se5.09,1.8
Ti1Se2,1.8
K0.2Fe2S2,1.8
Te3Zr1,1.8
Sn0.927In0.061Te1,1.8
Sn0.923In0.065Te1,1.8
Y3Ru4Ge13,1.8
Ir3Te8,1.8
Ce1Co0.6Ru0.4In5,1.8
La1C2,1.8
Au1Te2,1.8
Ru0.75Rh0.25As1,1.8
Ru0.6Rh0.4As1,1.8
Sm0.05La0.95Ni1C2,1.8
Sm0.03La0.97Ni1C2,1.79
Lu1Pt2Si2,1.79
Pr0.95La0.05Os4Sb12,1.79
Th1Ru3B2,1.79
Au0.85Pd0.15Ga2,1.79
Os0.115Re0.885,1.79
Os0.113Re0.887,1.79
Rh0.025Ti0.975,1.79
Au0.05Zr0.95,1.79
Sn0.902Pb0.048In0.05Te1,1.78
Th1Ru3B2,1.78
Nb0.6Os0.4,1.78
Pd1Tl1Pb1,1.78
Sn0.87Ag0.1Te1,1.78
Nb3Os2,1.78
Fe0.4Ni0.6Zr2,1.78
Dy1Rh3.2Ir0.8B4,1.78
Ce1Co1In7.65Zn0.35,1.78
Pd1Te2,1.78
Ce0.95Sm0.05Co1In5,1.773
Eu3Bi2S3.8Se0.2F4,1.773
Au0.93Pd0.07Ga2,1.77
Pr1Os4Sb12,1.77
Pd1.05Te2,1.77
Cd1Hg1,1.77
Pd1.05Te2,1.767
Ce1Co0.5Ru0.5In5,1.76
Pr0.8Ce0.2Pt4Ge12,1.76
Rb0.33W1O3,1.76
Pt0.22V0.78,1.76
Y2Re3Si5,1.76
Os0.006Re0.994,1.76
Sn0.904In0.084Te1,1.76
Cu1Ir1.6Pt0.4Se4,1.76
Sn0.88Pb0In0.12Te1,1.755
Ce1Co0.96Pt0.04In5,1.752
Au1V3,1.75
Ta1Ir1Te4,1.75
In0.1Sn0.9Te1.01,1.75
Al0.33Ge0.67,1.75
Au0.95Pd0.5Ga2,1.75
Ba0.1Pb3Sr0.9,1.75
La1Tl1.5Pb1.5,1.75
Al1Ge2,1.75
La7Ru3,1.75
Cu1S1Se1,1.75
Tm1Ir4B4,1.75
Ba1Pt1Si3,1.75
Hf1Rh0.7Pd0.3Si1,1.75
Ti0.95Ta0.05Se2,1.75
Pd1Te2,1.746
Li0.1K1Ca1Nb3O10,1.74
Sn0.901In0.099Te1,1.74
Ga1Pt1,1.74
Sb2Zr3,1.74
Sn0.921Ge0.029In0.05Te1,1.74
Au2In1Y1,1.74
Nd0.4Ce0.6Co1In5,1.74
La0.7Hf0.3Bi1S2O1,1.74
La0.6Hf0.4Bi1S2O1,1.74
K0.4W1O3,1.73
Ba1Cu0.6Si1.4,1.73
Ce1Rh0.13Co0.87In5,1.73
Bi2Pd1,1.73
Hf1Rh1,1.73
La0.91Nd0.09Pt1Si1,1.73
Cu0.4Zn0.6Ir2S4,1.73
Al0.12V0.88,1.73
Rh0.02Ti0.98,1.73
Sn0.9Ag0.07Te1,1.73
Pr0.9Nd0.1Os4Sb12,1.73
Rb1Fe2As2,1.73
Ce0.95Yb0.05Co1In5,1.73
Ce1Co1In4.95Hg0.05,1.723
La0.47Th0.53Ru2,1.72
Re0.999W0.001,1.72
Sn0.902Ge0.048In0.05Te1,1.72
Zr1Os1Si1,1.72
La0.96Nd0.04,1.72
Pd0.985Ni0.015H0.75,1.72
Dy1.2Mo6S8,1.71
Au0.24Te0.76,1.71
Pd0.95Pt0.05Te2,1.71
Os0.001Re0.999,1.71
Os0.002Re0.998,1.71
Ir0.37V0.67,1.71
Au0.16Te0.84,1.71
Pb0.975Tl0.013Na0.013Te1,1.71
Pr1Pt4Ge10.5Sb1.5,1.703
La1F0.5Bi0.72S2Sb0.12O0.6,1.7
Re1,1.7
Li0.9Mo6O17,1.7
Pr0.9La0.1Os4Sb12,1.7
Bi3Ca1,1.7
K1Hg1C8,1.7
K0.5Nb1S2,1.7
Al0.6Mg0.4,1.7
As1Pd2,1.7
Be2Nb1.5Ta1.5,1.7
Ca1Hg5,1.7
Cd0.9Ge0.1,1.7
Ce1,1.7
Co1U1,1.7
Hf0.875Re0.125,1.7
Hf0.05Rh0.04Ti0.91,1.7
Ir0.98Re0.02,1.7
Mo0.77Si0.23,1.7
Pt2.2Y1,1.7
Sn0.25Te0.75,1.7
Bi2Pd1,1.7
Nb3Rh0.7Os0.3,1.7
Bi2Ir1,1.7
Cd0.3Hg0.7,1.7
Dy1.2Mo6S8,1.7
Y3Ru4Ge13,1.7
Cu1.2Co1.8S4,1.7
Rh0.5Pd0.5Pb2,1.7
Ir0.7Re0.3,1.7
Ca3Ir4Ge13,1.7
Au0.14Te0.86,1.7
Lu1Re2,1.7
Ba1Pb0.8Sb0.2O3,1.7
Ca3Ir4Ge4,1.7
Pb3.9Ag1.1Bi6Se14,1.7
Au2Bi1,1.7
Eu0.5La0.5F1Bi1S2,1.7
Lu1Pd1Bi1,1.7
Hf1As1.67Te0.12,1.697
Zr1Ir1Si1,1.696
Mo0.001Re0.999,1.695
Re1,1.695
Re1,1.694
La1C2,1.694
Re1,1.69
Re0.999Mo0.001,1.69
Pd1Te2,1.69
La0.96Nd0.04,1.69
Ce1Co0.925Ni0.075In5,1.69
Cr0.797Ru0.203,1.68
Re1,1.68
Ga2Y1,1.68
Hf1Zr1C1,1.68
Pr1Os3.8Ru0.2Sb12,1.68
Y2Fe3Si5,1.68
Ce0.95La0.05Co1In5,1.68
Pb0.196Sn0.784In0.02Te1,1.67
Cu0.2Ir1Te1.7Se0.3,1.67
Pr0.6La0.4Os4Sb12,1.67
Pd0.51Sb0.49,1.67
Ru2Sc1.2,1.67
La0.999Ce0.001Rh3B2,1.67
Ru2Sc1,1.67
Os0.232Re0.768,1.67
Pd0.541Mo0.003Sb0.456,1.67
H0.54Nb0.65Pd0.35,1.668
La1Pt1.9Ge2.1,1.66
Au0.328Ga0.672,1.66
U1Be12.97B0.03,1.66
Pd1Sb1,1.66
Mo0.2Ru0.8,1.66
Cr0.2V0.8,1.66
Sn0.92Ag0.05Te1,1.66
Ir1Nb3,1.66
Pd0.26Ti0.74,1.66
Ga0.2V2Al20,1.658
La0.8Zr0.2Bi1S2O1,1.655
Al0.997Er0.003,1.653
La1Pt0.3Ni0.7Si1,1.65
Sn0.949In0.051Te1,1.65
Cu1S1,1.65
Pd0.95Rh0.05Te2,1.65
Pd0.9Pt0.1Te2,1.65
Ti0.5Zr0.5,1.65
Pb0.9Pt0.1Te2,1.65
La1Ir3B2,1.65
Pd0.52Sb0.48,1.65
C6Sr1,1.65
Tm0.9Lu0.1Fe3Si5,1.65
Y1.6Lu0.4Fe3Si5,1.65
La0.75Y0.25Ni1C2,1.65
Ga0.2V2Al20,1.65
Sr1Au1Si3,1.65
Ba6Nb10O30,1.65
Te2U1,1.65
Te2U1,1.647
Te2U1,1.645
La0.35Ce0.65Ru2,1.64
Pr0.8La0.2Os4Sb12,1.64
U1Pd2Al2.97Ga0.03,1.64
Sn0.874Ge0.076In0.05Te1,1.64
Th0.8Y0.2,1.64
Tb1.2Mo6S8,1.64
H0.34Nb0.72Pd0.28,1.64
Au0.15Te0.85,1.64
Cu1Ir1.4Pt0.6Se4,1.64
Y1Pt2Si2,1.64
Pd1Te2,1.64
Ba1Pt1Sb1,1.63
Tb1Pd1Bi1,1.63
Pr1Os3.8Ru0.2Sb12,1.63
Al0.28Mg0.18,1.63
Pd2.2S1,1.63
Pd2.8S1,1.63
Au0.293Ga0.707,1.63
La1Ru2,1.63
Th0.75Y0.25,1.63
La1Tl3,1.63
Dy1Rh1.2Ir2.8B4,1.62
Lu1Ni1Si3,1.62
Pr1Os3.6Ru0.4Sb12,1.62
Au3Te5,1.62
La1Rh5,1.615
Ce1Rh1In5,1.61
Au0.278Ga0.722,1.61
Ir2Y3,1.61
Nb3Se4,1.61
Sn0.941Ge0.009In0.05Te1,1.61
La0.95Gd0.05Ru2,1.61
Pd0.539Ti0.006Sb0.455,1.61
La0.992Tb0.008Al2,1.61
Ce1Ir1Ge3,1.61
Pb0.99Tl0.005Na0.005Te1,1.61
Pr0.8Nd0.2Os4Sb12,1.608
Pb0.333Sn0.618In0.05Te1,1.602
La0.983Lu0.007Tb0.009,1.6
La0.983Lu0.007Tb0.010,1.6
Ce1Ir1Si3,1.6
Cu0.489Zr0.511,1.6
C1Rh1,1.6
Ca1Hg3,1.6
Ca1Hg1,1.6
Ge1Mo3,1.6
Ir0.04Ti0.96,1.6
La5Si3,1.6
Mn0.33Ni0.67U6,1.6
Nb0.6Pd0.4,1.6
Ni1Zr2,1.6
S2Ta1,1.6
As1Ni0.25Pd0.75,1.6
Cu1Se1Te1,1.6
Nb1.71V1.29Au1,1.6
Cu0.9Co1.9S4,1.6
Tm1Ni1.88Co0.24B2C1,1.6
Cu1Se2,1.6
Dy1Mo6S8,1.6
Tm1Ir4B4,1.6
Ce1Co0.5Rh0.5In5,1.6
Er0.9Y0.1Pd2Sn1,1.6
Ho1Rh2.4Ru1.6B4,1.6
U1Pd2Al3,1.6
Pd0.541Nb0.003Sb0.456,1.6
Rh0.015Ti0.985,1.6
Sn0.057V0.943,1.6
Mo6S8,1.6
Ir0.33V0.67,1.6
Ce0.01Y0.99,1.6
Al2Ge2U1,1.6
B2Ru1,1.6
Ce0.9La0.1Rh1In5,1.6
Y0.95Ce0.05B6,1.6
Y0.5La0.5B6,1.6
Ta1S2,1.6
Hf2Rh1,1.6
Sr1Fe1.9Pt0.1As2,1.6
Ga0.3V2Al20,1.6
Sn0.618Pb0.333In0.05Te1,1.6
Pr1Ni1As1H0.06O0.94,1.6
Ba6Nb10O30,1.6
Ni1Sm1,1.6
Ba1Pt2As2,1.6
Ce1Bi1S2O1,1.6
Eu0.5La0.5F1Bi1S1.8Se0.2,1.6
Y1Pt2Ge2,1.6
Ru0.75Rh0.25As1,1.59
Bi2Pd1,1.59
Ce1Ir1Si3,1.587
Al1Ta3,1.587
Au0.281Ga0.719,1.585
Au0.2Ga0.8,1.58
Ta1Se1.2Te0.8,1.58
Ca1Si2,1.58
Pt1Tl2,1.58
Re0.65Ta0.35,1.58
Pr1Os3.6Ru0.4Sb12,1.58
Eu0.015La0.985,1.58
Pd0.56W0.44,1.58
Au0.35Te0.65,1.58
La1Ir2Si2,1.58
Pr1Os3.6Ru0.4Sb12,1.57
La3Ru2Sn13,1.57
Ce1Co1In4.94Sn0.06,1.57
Ge1.78La1,1.57
La1Tl3,1.57
Pt2Y1,1.57
Ce1Rh0.2Co0.8In5,1.57
Ca0.67Pt3B2,1.57
Ti0.5Zr0.5,1.57
Pd0.530Co0.005Sb0.465,1.57
Pd0.541Ru0.003Sb0.456,1.57
Tm5Rh3.6Co2.4Sn18,1.56
La0.8Ce0.2Pt4Ge12,1.56
Ce1Co1In4.94Sn0.06,1.56
Ce1Rh0.29Co0.71In5,1.56
Cu1S2,1.56
Sb1Sn1,1.56
Mo0.67Zr0.33,1.56
Au0.976Pd0.024Ga2,1.56
Pd0.539Sc0.006Sb0.455,1.56
Pd0.530Cu0.004Sb0.466,1.56
Au0.18Te0.82,1.56
La1Ir2Si2,1.56
Li0.9Mo6O17,1.56
Ni1Zr2,1.56
Ce1Ir1Si3,1.55
Ce1Co0.91Pt0.09In4.938Hg0.062,1.55
Ba24Si100,1.55
In0.87Te1,1.55
Ge3Te4,1.55
Al1N1,1.55
Zr1Rh1P1,1.55
La1Ir2Si2,1.54
La3Ru4Sn13,1.54
Pr1Os3.2Ru0.8Sb12,1.54
Pa0.75Zr0.25,1.54
Os0.3Re0.7,1.54
Au0.22Te0.78,1.54
Ni2Nb1Ga1,1.54
Hf2Rh1,1.54
Ga0.3V2Al20,1.54
Sr1Au1Si3,1.53
Na1Sn2As2,1.53
Pd1Te1,1.53
U1Ru2Si2,1.53
Y0.5Th0.5Ru3B2,1.53
Pr1Os3.4Ru0.6Sb12,1.53
Pd1Te2,1.53
Th0.65Y0.35,1.53
Mo0.1Nb0.765Pd0.135,1.53
Ga0.05V2Al20,1.53
Ga0.1V2Al20,1.53
Ga0.15V2Al20,1.528
Y0.5Th0.5Ru3B2,1.52
Pr0.7La0.3Os4Sb12,1.52
Ir3Th7,1.52
Tl3Y1,1.52
Ni1Zr2,1.52
Ru2Y1,1.52
Cu1S1,1.52
H0.12Nb0.8Pd0.2,1.52
Os0.01Zr0.99,1.52
Ce1Ir0.75Co0.25In5,1.52
La1Pt1Si3,1.52
Ba1Pt2As2,1.52
Cu0.05Ti1Se2,1.51
Ce1Ir1Si3,1.51
Bi0.3Zr0.7,1.51
Os3Th7,1.51
Rh1Te2,1.51
Bi0.3Zn0.7,1.51
U1Pd2Al2.94Ga0.06,1.51
Ca1Si2,1.51
Au0.098Pd0.02Ga2,1.51
Th0.67Nd0.33Ru2,1.51
Th0.9Y0.1,1.51
Au0.98Pd0.02Ga2,1.51
U1Ru2Si2,1.506
Th1Ir2Ge2,1.505
As1Cr1,1.5
Cu1S2,1.5
Bi4Sr4Ca0.5Tm1.5Cu4O16.91,1.5
Sr2Ru1O4,1.5
Am1,1.5
Co3Y4,1.5
Lu4Co6Sn19,1.5
Ce1Rh0.6Co0.4In5,1.5
Ag7F2H1O8,1.5
Ag0.45Ge0.55,1.5
Al0.999Fe0.001,1.5
Al0.39Mg0.61,1.5
Be5Ir1,1.5
Ce1Co2,1.5
Co0.96Mo0.04U6,1.5
Cu1S1Se1,1.5
Nb1O1,1.5
Nb3Si1,1.5
Nb0.025Ti0.975,1.5
Ni0.1Zr0.9,1.5
Os0.1W0.9,1.5
Tc0.1V0.9,1.5
Pb1Sb1,1.5
K0.4O3W1,1.5
La0.999Ce0.001Pt1Si1,1.5
Au1Nb3,1.5
Eu1Th3.4Ru0.6B4,1.5
La1Tl1.5Sn1.5,1.5
Cs1,1.5
La1Tl3,1.5
Pd0.530Ni0.005Sb0.465,1.5
In2Mo15Se19,1.5
Nb0.72Pd0.18W0.1,1.5
Sc4Os6Sn19,1.5
Pd1Sb1,1.5
Lu1,1.5
U1Ru2Si2,1.5
Lu4.93Yb0.07Ir4Si10,1.5
Ag7H1F2O8,1.5
La1Ir2Ge2,1.5
B105,1.5
Cu0.044Ti1Se2,1.5
Zr1Rh1P1,1.5
Ga0.3V2Al20,1.5
La1Pt3P1,1.5
Sr1Pd1Ge3,1.5
Y1Pt2Si2,1.5
La1Pt2Si2,1.5
La0.985Ce0.015Ni1C2,1.5
B2Ru1,1.5
Eu3Bi2S4F4,1.5
Ce1Ir1Si3,1.5
Te2U1,1.49
Sr2Ru1O4,1.49
Ge2La1,1.49
Y1In1.71Sn1.29,1.49
Pd0.95Ni0.05H0.86,1.49
La2.4Pr0.6Se4,1.49
Re0.1Ta0.9,1.49
Ti1.38V1.62Sb1,1.49
Al20.3V2,1.489
Al20.3V20,1.48
Sr2Ru1O4,1.48
La1Te1,1.48
Rh2Y3,1.48
Sn0.855Ge0.095In0.05Te1,1.48
La7Pd3,1.48
Tm1Ir3.6Rh0.4B4,1.48
Co0.03V0.97,1.48
Pd0.5Sb0.5,1.48
La0.1Th0.9,1.48
Au0.2Te0.8,1.48
Pr0.75Nd0.25Os4Sb12,1.47
Ba1Ti2Sb2O1,1.47
U2Pt1C2,1.47
Be0.95Ru0.05,1.47
C2Pt1U2,1.468
Ce0.9Yb0.1Co1In5,1.46
La0.76Ce0.24Ru2,1.46
Rb1Hg1C8,1.46
Re0.64Ta0.36,1.46
Al0.131Cr0.088V0.781,1.46
La0.76Th0.24Pb3,1.46
Pd0.543Mn0.001Sb0.456,1.45
V0.81Cr0.09Al0.1,1.45
In0.08Sn0.92Te1.01,1.45
Bi1Pt1Se1,1.45
Pt0.3Ta0.7,1.45
Pt0.5W0.5,1.45
Tl1,1.45
Th1Ir1.2Ru0.8,1.45
Mo0.1Nb0.72Pd0.18,1.45
Al1Ce0.017La3,1.45
Ge1Mo3,1.45
C1Si1,1.45
Si1C1,1.45
U1Ru2Si2,1.45
La1Ir1Si3,1.45
Eu3Bi2S4F4,1.45
U2Pt1C2,1.449
Eu3Bi2S4F4,1.449
H0.827Pd1,1.445
H0.827Pd1,1.44
Ta1Se1Te1,1.44
Sr2Ru1O4,1.44
C2La1,1.44
Pr1Os3.2Ru0.8Sb12,1.44
Er0.08La0.92,1.44
Pd0.49Sb0.51,1.44
La1Pd2Ge1.92Sn0.08,1.43
Ce0.9Sm0.1Co1In5,1.43
In0.05Sn0.95Te1.01,1.43
Ce1Rh0.4Co0.6In5,1.43
Ge1Mo3,1.43
Er0.08La0.92,1.43
Pr0.8Nd0.2Os4Sb12,1.425
Ga0.3V2Al20,1.42
La0.991Tb0.009Al2,1.42
Sr2Ru1O4,1.42
Ce0.25La0.75Ru2,1.42
Sn0.588Ge0.252In0.16Te1,1.42
La0.9Nd0.1Pt1Si1,1.42
Ce1Rh0.3Co0.7In5,1.42
Nd0.4Ce0.85Co1In5,1.42
U1Ru2Si2,1.42
Sn0.975In0.025Te1,1.42
Ti1Ir1Si1,1.415
Cr0.82Ru0.18,1.414
Sr1Ni2P2,1.41
Pr0.6La0.4Os4Sb12,1.41
Ni0.270Zr0.694Mn0.037,1.41
C8Rb1Hg1,1.41
U1Ru2Si2,1.41
Sn0.95In0.05Te1,1.41
U2Pt0.95Rh0.05C2,1.41
Ce1Co0.875Ni0.125In5,1.41
Ce1Ag2Si2,1.402
Ce1Co0.91Pt0.09In4.975Hg0.025,1.402
Mo3Si1,1.4
Cd2Re2O7,1.4
Ba24Si100,1.4
Sr0.2W1Se2,1.4
Rb1Hg1C8,1.4
Pd2Y0.8Dy0.2Sn1,1.4
Cu0.05Ti1Se2,1.4
Bi1Cu1,1.4
Cu4K1S3,1.4
Fe0.75Ni0.25U6,1.4
Ge0.5Pt0.5,1.4
Ni0.05Pd0.95Te2,1.4
Pa1,1.4
Rh0.91Ti0.04Y0.05,1.4
Ti0.975V0.025,1.4
In4Sb1Te3,1.4
Re0.6Ta0.4,1.4
Ca0.1O3W1,1.4
Co1Si2,1.4
Gd1.2Mo6S8,1.4
Tb1.2Mo6S8,1.4
Ce1Rh0.5Co0.5In5,1.4
Y1Ru4B4,1.4
Ho1Rh4B4,1.4
Tb1Os1.5Sn2.6,1.4
Ho1Os1.2Sn2.5,1.4
Br2,1.4
La3Pd5Si1,1.4
Th0.95Y0.05,1.4
Y1Os1B4,1.4
Sc4Ir6Sn19,1.4
Gd1Mo6S8,1.4
Mo6S6I2,1.4
Ge1U7,1.4
Sc4Ir6Ge19,1.4
Tb4Os6Sn19,1.4
Ho4Os6Sn19,1.4
Ce1Ir1Si3,1.4
Si1C1,1.4
Pb0.985Tl0.015Te1,1.4
B0.039C0.961Si1,1.4
Sn1O1,1.4
Ba1Pb0.85Sb0.15O3,1.4
U1Ru2Si2,1.4
Zr2Co0.15Ni0.85,1.4
La1Ir2Si2,1.4
Eu3Bi2S4F4,1.4
Ce0.837Yb0.163Co1In5,1.4
Pr1Pt4Ge9Sb3,1.4
Pr1Pt4Ge8Sb4,1.4
Y1Fe2Ge2,1.4
Ba0.85Na0.15Fe2As2,1.4
La0.985Ce0.015Ni1C2,1.4
Ce1Co1Si3,1.4
Te2U1,1.4
U0.85Ru0.15,1.398
Ce0.9Pr0.1Bi1S2O1,1.39
Sr2Ru1O4,1.39
Hg1Mg1,1.39
Ir0.33V2.67,1.39
Nb1O1,1.39
Th1,1.39
As1Ni0.12Pd0.88,1.39
As0.5Ni0.06Pd0.44,1.39
Ir1V2,1.38
Th1,1.38
Pb0.986Tl0.014Te1,1.38
Ce1Rh0.35Co0.65In5,1.38
Ce1Rh0.23Co0.77In5,1.38
Tl1,1.38
Ga3Zr1,1.38
Hf1Ti1C1,1.38
La0.987Tb0.013,1.38
Y1Ru1B4,1.38
La0.996Gd0.004Al2,1.38
Ni2Zr1Al1,1.38
Ag7H1F2O8,1.38
Pb0.985Tl0.005Na0.01Te1,1.38
Ba1Ni2Ge0.8P1.2,1.38
Sr1Pd1Ge3,1.378
Au0.427Ga0.573,1.37
La1Tl2.19Pb0.81,1.37
Ti0.65Zr0.35,1.37
U6Co0.5Ni0.5,1.37
Th1,1.37
Ca1Si2,1.37
Ca1Si2.2,1.37
Sr2Ru1O4,1.365
Ce1Co1In4.935Hg0.065,1.36
La1Pt2Si2,1.36
In0.06Sn0.94Te1.01,1.36
Ti0.66Zr0.33,1.36
Pt1V2.5,1.36
Th1,1.36
Cu0.3Zn0.7Ir2S4,1.36
Er1Rh1.1Sn3.6,1.36
Ti0.3Zr0.7,1.36
Cr0.25V0.75,1.36
Ta0.78W0.22,1.36
Sn0.92In0.08Te1,1.36
Ce1Co0.91Pt0.09In4.962Hg0.038,1.355
Y1Ni1Si3,1.355
Au0.388Ga0.612,1.35
Sr2Ru1O4,1.35
Ga3Nb5,1.35
La1N1,1.35
Ti0.33Zr0.66,1.35
Th1,1.35
Os0.362Re0.638,1.35
Pd0.544Cr0.000Sb0.456,1.35
Pt0.52W0.48,1.35
Y5Rh4Ge10,1.35
Ca1Si1.9,1.35
Ce1Co1In4.5Cd0.5,1.35
Pb0.988Tl0.013Te1,1.35
B0.978C0.022Si1,1.35
Sn0.92In0.08Te1,1.34
Cr0.8Ru0.2,1.34
Mo0.59Si0.41,1.34
Mo1Si0.7,1.34
As1Ni0.25Pd0.75,1.34
Sc1Os1B2,1.34
La0.8Pr0.2Pb3,1.34
Rh0.03Ti0.97,1.34
Al2Si2U1,1.34
Mo0.2Nb0.608Pd0.192,1.33
K0.42W1O3,1.33
Ti1Ru1P1,1.33
Rh0.8Ru0.2Se2,1.33
Ti1Ru1P1,1.32
Ce1Rh1Ge3,1.32
Pb0.987Tl0.013Te1,1.32
Pb1.9Rh1,1.32
Pd1Tl2,1.32
Sn19Er4Rh6,1.31
La1.14Nb1Se3.14,1.31
Cd2Re2O7,1.31
Cr0.8Re0.2,1.3
Ce0.925La0.075Co1In5,1.3
Sb2Yb1,1.3
Na0.5Nb1S2,1.3
Al2N1Nb3,1.3
Be13Ru1,1.3
C0.6Pd1,1.3
Cd0.06Cu0.94Se2,1.3
Cd0.04Cu0.96S2,1.3
Cu1Te2,1.3
Ge2Sc1,1.3
Ni0.1Pd0.9Te2,1.3
Re1Ta1,1.3
Rh0.04Sc0.05Ti0.91,1.3
C1Fe3,1.3
Cr0.5Ru0.5,1.3
Al1,1.3
C0.44Mo0.56,1.3
C1Re0.01W1,1.3
Mo3Si1.3,1.3
P1Rh2,1.3
Sb1Sn1,1.3
Ta0.025Ti0.975,1.3
U1Ru2Si2,1.3
Ho0.8La0.2Ni2B2C1,1.3
Y1Rh1.1Sn3.1,1.3
Tm2Fe3Si5,1.3
Er1Os1.1Sn2.7,1.3
Ce1Ir1In5,1.3
Pr1Ru4Sb12,1.3
La0.05Th0.95,1.3
K2In1Mo15Se19,1.3
La0.4Ce0.6Ru2,1.3
Y4Ru6Sn19,1.3
Co1Si2,1.3
Au0.374Te0.626,1.3
Ca2Pt3Si5,1.3
Pb0.99Tl0.01Te1,1.3
In1N1,1.3
Yb1Sb2,1.3
La1Pt2Ge1.8Sn0.2,1.3
La1Pd2Sb2,1.3
Ce1Pd1Bi1,1.3
Au2Pb1,1.3
Ti1Ru1P1,1.3
Mo1Te1.8S0.2,1.3
Ce1Bi1S2O1,1.29
B2Nb1,1.29
La0.6Y0.4,1.29
Ce1Co2,1.29
Pd0.6W0.4,1.29
Al0.9Li0.1,1.28
Dy1Rh0.56Ir3.44B4,1.28
Au1Zn3,1.28
Th1,1.278
U0.9Th0.1Pd2Al3,1.275
La0.72Ce0.28Ru2,1.273
La1Pt0.1Ni0.9Si1,1.27
Ce1Ir1In5,1.27
Lu0.275Rh0.725,1.27
La0.98Sm0.021,1.27
Tm5Rh2.4Co3.6Sn18,1.27
Pr0.7Nd0.3Os4Sb12,1.27
Ru0.4Rh0.6P1,1.27
Ca1Pd2As2,1.27
Pr1Pt4Ge10Sb2,1.27
Ca1Pd2As2,1.26
Cr0.808Ru0.182,1.26
Pt1V3.5,1.26
Er0.95Y0.05Pd2Sn1,1.26
Fe0.5Co0.5Zr2,1.26
Cu1Rh1.7Sn0.3Se4,1.26
La0.8Y0.2Ni1C2,1.25
Ho1Rh0.8Ir3.2B4,1.25
Ce0.65Pr0.35Ru2,1.25
Au1Sn1,1.25
In3Te4,1.25
Pd1Sb2,1.25
Th0.5Y0.5,1.25
Nb1O1,1.25
Ba0.14O3W1,1.25
In0.11O3W1,1.25
Tc0.1W0.9,1.25
Ho1.2Mo6S8,1.25
Ce1Ru3Si2,1.25
Pr1Ru4Sb12,1.25
Au0.988Pd0.012Ga2,1.25
Er4Os6Sn19,1.25
Fe0.5Ni0.5Zr2,1.25
La1Pd2Ge1.9Sn0.1,1.248
U0.89Mo0.11,1.242
La0.983Lu0.006Tb0.010,1.24
Sr2Ru1O4,1.24
P3Sn4,1.24
U1Ru2Si2,1.24
La2.25Pr0.75Tl1,1.24
Au0.2Pd1.8In1Y1,1.24
U1,1.24
Er1Pd1Bi1,1.24
Nb1Pt1Si1,1.23
Ce1Co1In4.91Sn0.09Hg0.025,1.23
As3Sn4,1.23
Ti0.5Zr0.5,1.23
Pd0.468Ni0.094Sb0.437,1.23
La1Ni1Si1,1.22
Co1Si2,1.22
P1Rh1,1.22
Pd0.543Fe0.001Sb0.456,1.22
Mo0.15Nb0.68Pd0.17,1.22
Ce1Co1In4.92Sn0.08,1.22
Ce0.9La0.1Co1In5,1.22
Sn0.96In0.04Te1,1.22
Ti0.6Ta0.4Se2,1.22
Ce1Co1In4.91Sn0.09,1.21
La1Pt2Si2,1.21
Pr1Os2.4Ru1.6Sb12,1.21
Au1Zn3,1.21
Bi0.1Pt1Sb0.9,1.21
Bi1Pt1,1.21
Ce0.03La0.97,1.21
H0.81Pd1,1.21
Sn0.95In0.05Te1,1.201
Ba1Ag0.5Si1.5,1.2
Sr2Ru1O4,1.2
La1.85Sr0.15Cu0.973Zn0.028O4,1.2
Ce1Rh0.3Ir0.7In5,1.2
Cu0.813Sn0.187,1.2
Er4Rh6Sn19,1.2
In0.045Sn0.955Te1.01,1.2
Ag1La1,1.2
Au1Ga1,1.2
Au1Nb3,1.2
Bi1Pd1Te1,1.2
C1Pt2W3,1.2
Mn0.01Ti0.99,1.2
Mo0.006U0.944,1.2
Nb0.6Ru0.4,1.2
Pd1Sb1Te1,1.2
Ge0.7Mo1,1.2
Pd1Se1Te1,1.2
Ir0.35Ta0.65,1.2
Ag0.1In0.9Te1,1.2
Al1Pb1,1.2
Hg2K1,1.2
Ta0.8W0.2,1.2
Nb0.97Cr0.03N1,1.2
Nb0.99Cr0.01N1,1.2
I2,1.2
Sn0.95In0.05Te1,1.2
U1Ru2Si2,1.2
Ce1Ir1In5,1.2
Pd0.5Ag0.5Th2,1.2
Cr0.125Ru0.875,1.2
Ho0.042La0.958,1.2
Ce1Rh1In4.84Sn0.16,1.2
U0.85La0.15Pd2Al3,1.2
U0.7La0.3Pd2Al3,1.2
U0.4La0.6Pd2Al3,1.2
U1Pd1.98Al3,1.2
La1Sb2,1.2
Ba1Ti2Sb2O1,1.2
Ru1Sb1,1.2
Nb2Pd0.67Se5,1.2
Au2Pb1,1.2
Y1Fe2Ge2,1.2
Sn0.8Ag0.2Te1,1.2
Ta1Se1.6Te0.4,1.2
Ta1Se1.5Te0.5,1.2
Na1Sn2As2,1.19
Ce0.6Yb0.4Co1In5,1.19
La1In1.5Sn1.5,1.19
La1Tl0.75Sn2.25,1.19
Ce0.5Yb0.5Co1In5,1.19
Ba1Ti2Sb2O1,1.19
Ce0.85Yb0.15Co1In5,1.182
Ce1Co1In4.91Sn0.09,1.18
Th1U0.025,1.18
Al1,1.18
Au2Pb1,1.18
Ir1Te3,1.18
La1Pb1.5Sn1.5,1.18
Rh0.8Y0.2,1.18
Os0.432Re0.568,1.18
Al1,1.179
Na1Sn2As2,1.175
Al1,1.172
Al1,1.17
Pr0.4La0.6Os4Sb12,1.17
Sr2Ru1O4,1.17
N0.6Ti1,1.17
Au0.499Ga0.501,1.17
Er1Pd2Sn1,1.17
Yb1Pd2Ge2,1.17
Ga0.58Sb0.42,1.17
Dy1Rh0.8Ir3.2B4,1.165
Nb2Pd1S3Se2,1.163
Ta1Se0.8Te1.2,1.16
Al1,1.16
Pb0.989Tl0.011Te1,1.16
As3Sn4,1.16
Pr1Os0.2Ru3.8Sb12,1.16
La0.967Pr0.033Tl3,1.16
Rh0.01Ti0.99,1.16
U0.99Gd0.01Pd2Al3,1.159
Ce1Rh1In5,1.155
Al1,1.15
U1Ni2Al2.98,1.15
In0.83Te1,1.15
In3Te4,1.15
Bi1Pt1Te1,1.15
U1Pd2Al2.85Ga0.15,1.15
Au1Ga2,1.15
Ga2La1,1.15
Ce1Au2Si2,1.145
La1Nb2Al20,1.143
U0.98Ni2Al3,1.14
Mo1Te1.78S0.22,1.14
Sr2Ru1O4,1.14
Cu0.489Zr0.511,1.14
Cu0.256Zr0.714Mn0.030,1.14
In0.04Sn0.96Te1.01,1.14
Pr1Os2.4Ru1.6Sb12,1.14
Au1Ga2,1.14
Pb0.99Tl0.01Te1,1.14
U1Ni2.02Al3,1.135
Y1Pd2Ge2,1.135
K1Hg1C4,1.132
U1Ni2Al3.02,1.13
Al0.992Zn0.008,1.13
Sr2Ru1Ti0.001O4,1.13
Ag2Pb3S1,1.13
Ag2Pd3S1,1.13
Pd0.529V0.006Sb0.465,1.13
Al0.95Li0.05,1.13
Pr1Os2.4Ru1.6Sb12,1.13
U0.99Y0.01Pd2Al3,1.13
U1Ni1.98Al3,1.128
Ru0.7Rh0.3P1,1.126
Ag0.002Al0.998,1.12
U1Ni2Al3,1.12
Au1Ga2,1.12
Cs0.32O3W1,1.12
La1Pd2Ge2,1.12
V2Ir1B2,1.12
Ni2Hf1Ga1,1.12
Mo1Te1.8Se0.2,1.11
Pr1Ti2Al20,1.11
Pr1Ru4Sb12,1.11
Be0.89Cu0.11,1.11
Gd0.001Th0.999,1.11
La1Pb2.25Sn0.75,1.11
Th0.999U0.001,1.11
Ba1Pd0.4Si1.6,1.109
Ce1Co0.91Pt0.09In5,1.103
Lu1Pt0.88Pd1.12In1,1.1
Lu1Pt0.92Pd1.08In1,1.1
Cd2Re2O7,1.1
Sr2Ru1O4,1.1
U1Ru2Si2,1.1
U1Ni2Al3,1.1
Zr0.125Ti0.080Cu0.055Ni0.047Be0.693,1.1
Sc4Ir6Sn19,1.1
Au5Sn1,1.1
C1Mo3Pt2,1.1
Lu1S1,1.1
Ce1Ru3B2,1.1
Cr0.7Rh0.3,1.1
K0.1Li0.02W1O2.88F0.12,1.1
Tm4Os6Sn19,1.1
Tm2Fe3Si5,1.1
La1Rh2Si2,1.1
La1Ir2Si2,1.1
Y1Ru2Si2,1.1
Y1Rh2Si2,1.1
Y1Pd2Si2,1.1
Y1Os2Si2,1.1
Y1Ir2Si2,1.1
Th1Ru2Si2,1.1
Th1Rh2Si2,1.1
Th1Pd2Si2,1.1
Th1Os2Si2,1.1
Th1Pt2Si2,1.1
U1Rh2Si2,1.1
U1Ir2Si2,1.1
Th1Ru2Ge2,1.1
Th1Rh2Ge2,1.1
Th1Pd2Ge2,1.1
Th1Os2Ge2,1.1
Th1Pt2Ge2,1.1
U1Rh2Ge2,1.1
U1Ir2Ge2,1.1
La1Ta2Al20,1.1
Y1Pd2Ge2,1.095
Te2U1,1.09
Ba1Ni2As2,1.09
Ir2Y1,1.09
Sn0.807Ge0.142In0.05Te1,1.09
Ni2.5Cu1.5Zr8,1.09
Ce1Rh1Si3,1.09
U0.99Y0.01Pd2Al3,1.09
U2Pt0.9Rh0.1C2,1.083
Ba1Nb2S5,1.08
Ga1,1.08
Sr2Ru1O4,1.078
Ga1,1.075
Rh0.35V0.65,1.07
Pb4Ag1Bi6Se14,1.07
Pr0.2La0.8Os4Sb12,1.07
In0.03Sn0.97Te1.01,1.07
Rh5Th1,1.07
Rh3Y1,1.07
Ru1Ti1,1.07
Th7Fe1.86Co1.14,1.07
La0.998Ce0.002Rh3B2,1.07
Th0.879Tm0.121,1.07
Al0.99Li0.01,1.061
Ce1Rh1Si3,1.06
Ga1,1.06
In0.82Te1,1.06
In2Sb1Te2,1.06
O1Ti1,1.06
Ag1La1,1.06
Ce1Rh1Si3,1.05
Cu1Ir1.8Pt0.2Se4,1.05
La1Mg2,1.05
Nb3Os1,1.05
Th7Fe2.43Ni0.57,1.05
Pr1Os2.8Ru1.2Sb12,1.05
La1Tl2.25Sn0.75,1.05
Al0.97Li0.03,1.05
Pr1Os2.8Ru1.2Sb12,1.043
Ce1Co0.91Pt0.09In5,1.04
Ce1Ir1In4.996Sn0.004,1.04
Ag7N1O11,1.04
Ag7F0.25N0.75O10.25,1.04
La1Zn1,1.04
Ag7O11N1,1.04
Pr1Ru4Sb12,1.04
Pr1Os0.4Ru3.6Sb12,1.04
Pd2In1Y1,1.04
Ag7N1O11,1.03
Yb1,1.03
Cr0.67Os0.33,1.03