formula,Tc,type
Bi3.16Na0.12Pd1.94,5.0,original
B10.52Zr3.54,5.0,original
Hf7.89Lu0.58P2.61S0.45,5.0,original
Ce5.81Pt0.1Ru5.17,5.0,original
Ti3.54,5.0,original
Ir1.62Rh29.05S16.61,5.0,original
Bi4.85Ni2.18,5.0,original
In1.64,5.0,original
Pd2.14Te2.37,5.0,original
H2.63Nb0.85Pd0.31,5.0,original
Bi1.47Ce1.61F2.5Nd3.34S2.07,5.0,original
Ho1.03Pd3.98Sn0.78Y1.8,5.0,original
Ba1.72Bi3.58Sb0.84,5.0,original
Bi4.85Ni2.05,5.0,original
W10.56,5.0,original
Al0.77Ca1.05Si0.32,5.0,original
Co4.39H9.43Na1.14O0.28,5.0,original
Bi1.47F2.5La0.4S2.07Sm3.34,5.0,original
Bi3.16La1.11Ni1.6,5.0,original
Nb3.63Rh3.52,5.0,original
Pd3.98Sn0.78Y1.32Yb2.91,5.0,original
V0.58,5.0,original
Fe1.02U21.67,5.0,original
Ir5.11La0.25Th2.1,5.0,original
Ce0.28In1.68La3.87,5.0,original
C0.24Y2.04,5.0,original
Ba0.64Bi1.81Sb0.9Ti8.52,5.0,original
Ir1.07Rh0.37Te4.87,5.0,original
Pb2.52Se3.09Sn0.2Ti8.52,5.0,original
Bi6.29Mn2.08O0.48S3.19,5.0,original
Pb3.13Se1.15Ta5.24,5.0,original
Ru5.45Th3.56,5.0,original
In0.16Pb0.98Sn0.34Te2.37,5.0,original
Cu0.13La2.46O0.48,4.0,original
Bi3.16Ca2.91Cu0.76Gd4.42O1.68,4.0,original
Cu0.13La2.37O0.48,4.0,original
Ba1.72Cu1.39O1.23Pr0.36Y0.85,4.0,original
Ba1.72Cu1.39O1.25Pr0.36Y0.85,4.0,original
Ba1.72Cu1.39O1.27Pr0.36Y0.85,4.0,original
Ba0.64Cu1.39Gd8.95O1.25Sr1.46,4.0,original
Bi1.43K2.76O0.2,4.0,original
Ca12.24Cu14.61O10.8Sr6.74,4.0,original
Co4.41H9.43Na1.1O0.28,4.0,original
Na2.32S5.42Sn0.78Ta10.6,4.0,original
Nb2.37Sn0.78,4.0,original
Ca0.55Mo1.1S2.07,4.0,original
Lu13.45Rh10.81Sn16.67,4.0,original
H18.2Na2.52S5.6Sn0.92Ta10.6,4.0,original
Fe4.86La1.11P22.25,4.0,original
Na0.14S2.07Ta5.24,4.0,original
Au1.78La0.77,4.0,original
B4.29Nb2.24Ti0.29,4.0,original
B0.73Ta5.24,4.0,original
Bi0.46Pd1.12,4.0,original
Ti3.8,4.0,original
Sn0.76Ta15.96,4.0,original
Hg14.6Mg3.17,4.0,original
O0.2W5.25,4.0,original
P1.78Sn0.78,4.0,original
Ti3.76,4.0,original
Ti3.67,4.0,original
Rh1.48Ti0.38,4.0,original
Ru1.11V0.38,4.0,original
N1.91Re1.43,4.0,original
Ca1.05Ir3.36,4.0,original
Bi0.36In1.07,4.0,original
In1.68Nb3.63,4.0,original
Nb3.63Si0.25Sn0.78V2.32,4.0,original
Ba6.25Na1.14Si15.36,4.0,original
Mo7.34Pb3.13Se4.83,4.0,original
Nb3.63S4.3,4.0,original
B0.73Re1.43Tb13.87,4.0,original
B0.73Gd8.95Re1.43,4.0,original
P1.78Ru2.65Zr3.7,4.0,original
B3.4Dy10.45Ru1.53Th12.33,4.0,original
Lu3.29Rh2.06Sn3.43,4.0,original
Ir6.85Lu16.75Si3.27,4.0,original
Ba0.64Ga0.85Si0.32,4.0,original
B1.62Er5.71Ni4.79Tb3.44,4.0,original
P1.78,4.0,original
Ba8.19Ge9.94Si11.33,4.0,original
Co8.96Cu0.13S4.3,4.0,original
B5.18La0.18Y1.21,4.0,original
Al13.59Os9.93Ru2.09,4.0,original
Cs0.99F0.51O0.16W5.25,4.0,original
Ti3.48,4.0,original
,4.0,original
Zr3.51,4.0,original
In5.85Mo18.58Se11.58,4.0,original
O0.2Sr1.46Ti4.19,4.0,original
Se0.54Y2.04,4.0,original
Te7.36Zr3.7,4.0,original
Co4.41La3.98,4.0,original
Ga4.56Mo1.08,4.0,original
Mg2.51Ni7.28Zn0.38,4.0,original
As0.65Co0.77Fe0.77Pr0.75,4.0,original
As0.65Co1.23Fe0.64Pr0.75,4.0,original
As0.65F0.41La1.11Ni2.3,4.0,original
FeSe0.47,4.0,original
As0.65Ce5.81Co0.55F0.41Fe0.83,4.0,original
Cs2.57O0.2W5.25,4.0,original
B1.62Co6.23Fe0.51La1.11,4.0,original
La1.11P3.64Ru5.45,4.0,original
Cu0.13La2.16O0.48Sr0.17,4.0,original
As0.4Ce5.81Fe1.02P0.47,4.0,original
As1.47Ba0.48Fe2.3K0.69,4.0,original
Bi1.47Ce5.81F3.55S2.07,4.0,original
In0.24Pb1.18Sn0.25Te2.37,4.0,original
Al7.28Ba8.19Si13.01,4.0,original
Bi20.05O4.38S12.13,4.0,original
Bi3.16La1.11Ni1.43,4.0,original
B1.62Mg13.03Ni14.76,4.0,original
Ba0.64Ge2.41,4.0,original
Co8.96La3.98Ru5.45Sn11.37,4.0,original
B1.62Ca3.54Rh14.46,4.0,original
As0.62Sn0.78,4.0,original
Ag4.11Bi0.29Se1.15Sn0.51,4.0,original
Lu16.84Rh10.81Sn15.78,4.0,original
Te12.35Zr3.7,4.0,original
Mo1.1S2.07,4.0,original
K5.32Li9.44Nb3.63O2.15Sr3.22,4.0,original
Cu0.13Fe1.02La2.33O0.48,40.0,original
Cu0.13Sr1.28,40.0,original
Ba1.72Cu1.37O1.22Y2.04,40.0,original
Ba0.75Cu0.13La0.97O0.75Tl4.41,40.0,original
Ba1.72Cu1.98O1.59Y2.04,40.0,original
Ba1.72Cu1.39Gd6.23O1.31Pr0.21,40.0,original
Ba1.4Cu1.39Eu8.89O1.35,40.0,original
Ba1.72Cu1.39O1.3Pr0.21Y1.32,40.0,original
Cu0.13La2.32O0.48,40.0,original
As0.65Fe1.02La0.4Y0.85,40.0,original
As0.65F0.67Fe0.96Sm6.8,40.0,original
Ba1.72Cu1.3O1.3Y2.04Zn0.27,40.0,original
Ba1.45Cu1.39Gd8.95O1.33Pr0.17,40.0,original
Cu1.3O1.31Pr0.13Re0.17Sr3.22Y1.56,40.0,original
Cu0.13La2.33O0.48,39.0,original
Ba3.45Cu3.28La3.12O3.27,39.0,original
Ba1.72Cu1.3O1.3Y2.04Zn0.27,39.0,original
Cu0.13La2.26O0.48,39.0,original
Cu0.13Sr1.19,39.0,original
Cu0.13La2.5O0.49,39.0,original
Cu0.13La2.33O0.49,39.0,original
Ba1.72Cu2.02O1.59Pr0.44Y0.61,39.0,original
Cu0.76Gd8.95O1.59Ru2.65Sr2.52,39.0,original
Ba1.72Ca0.3Cu2.27Gd1.7La2.26O2.25,39.0,original
Ba1.72Cu1.2Dy10.45Ga0.29O1.25,39.0,original
Cu0.13La2.32O0.48,39.0,original
Cu0.76Gd8.95O1.59Ru2.37Sr3.22,39.0,original
Cu0.76Gd8.95O1.59Ru1.81Sn0.16Sr3.22,39.0,original
Cd5.88Ce3.41Cu0.76Eu10.96O1.87Pb1.51Sr2.87,39.0,original
B1.62Mg3.17,39.0,original
Ca2.04Cl16.44Cu0.13,39.0,original
Cu0.76Gd8.95O1.59Ru2.65Sr3.22,39.0,original
B1.62Be0.23Mg2.19,39.0,original
B1.62Mg3.11,39.0,original
As0.65F0.15Fe1.02Sm6.8,39.0,original
As1.47Ca6.02Fe2.3Mg2.51O2.09Ti13.72,39.0,original
As1.47Ba0.24Fe2.3K1.89,39.0,original
As1.47Ba0.26Fe2.3K1.72,39.0,original
As1.47Ca0.82Fe1.02,39.0,original
Ba0.43Fe2.3Se1.15,39.0,original
As1.47Ba0.21Fe2.3K2.05,39.0,original
As0.65F0.41Fe1.02Sm6.8,39.0,original
As1.47Ba0.28Fe2.3K1.72,39.0,original
Ba1.72Cu1.39Eu4.73O1.3Pr0.21,39.0,original
Ba1.35Cu1.39La1.47O1.33,39.0,original
Bi2.82Ca1.05Co0.41Cu0.69O1.59Pb0.53Sr3.22,39.0,original
Ba0.97Cu0.13La0.68O0.75Tl4.41,39.0,original
As0.65Fe1.02La0.54Y0.61,39.0,original
Ba1.72Cu1.37O1.2Y2.04,39.0,original
Ba1.72Cu1.39O1.22Pr0.36Yb4.91,39.0,original
Ba1.72Cu1.39O1.17Y1.8,39.0,original
Cu0.13La1.4O0.76Pb1.51Sr1.11,39.0,original
Cu0.13La2.3O0.48,39.0,original
B1.62Mg3.14,39.0,original
Ba1.4Cu1.39La1.47O1.32,39.0,original
Cu0.13Sr1.37,39.0,original
Cu0.13Sr1.11Y0.13,39.0,original
Cu0.13Sr1.02Y0.25,39.0,original
Ba1.72Cu1.92O1.59Y2.04,39.0,original
B1.62Mg2.84,39.0,original
B1.62Mg2.51,39.0,original
Fe1.28H3.58Li5.77Se0.44,39.0,original
As1.47Ba0.22Fe2.3K2,39.0,original
Cu0.13La1.11O0.75Sr1.46Tl3.05,39.0,original
Cu0.13La1.26O0.76Pb1.51Sr1.28,39.0,original
B1.62Mg3.01,39.0,original
B1.61Mg3.17,39.0,original
As1.47Ba0.3Fe2.3K1.61,39.0,original
Ba1.72Cu1.39O1.24Sm6.8,39.0,original
Ba0.75Cu0.13La0.97O0.75Tl4.41,39.0,original
Ba1.72Cu1.28O1.31Y2.04Zn0.34,39.0,original
B1.62Mg2.84Zn0.17,39.0,original
B1.62Mg2.51Zn0.38,39.0,original
B1.6Mg3.17,39.0,original
B1.58Mg3.17,39.0,original
Ba1.18Cu1.39La0.4O1.37Y2.04,39.0,original
Ba1.72Cu1.39O1.3Pr0.13Sm5.42,39.0,original
B1.62Mg2.84Ti0.29,39.0,original
B1.55Mg3.17,39.0,original
Cu0.13La2.35O0.48,39.0,original
B1.62Li0.27Mg3.01,39.0,original
Cu0.76Gd8.95O1.59Ru2.09Sr3.22,39.0,original
As0.65Ce5.81F0.41Fe1.02,39.0,original
B1.62Mg3.16,39.0,original
B1.62Mg3.13,39.0,original
Ba1.18Cu1.39La0.4O1.33Y2.04,38.0,original
Ba1.72Cu0.13O1.02Tl8.96,38.0,original
Ba1.29Cu1.39Nd6.84O1.34,38.0,original
Cu0.13La2.33O0.48,38.0,original
Ca1.05Cu0.76La2.26O1.03,38.0,original
Cu0.13Sr1.37,38.0,original
Cu0.13La2.32O0.48,38.0,original
Ba1.51Cu1.39O1.34Sm8.19,38.0,original
Ba0.86Cu1.39La1.54O1.3Sr0.58,38.0,original
Ba1.72Cu1.39O1.21Pr0.28Y1.09,38.0,original
Ba0.1Cu1.27Ga0.18O1.31Sr2.34Y2.04,38.0,original
Ba1.72Ce0.41Cu2.02O1.59Y1.8,38.0,original
Ce2.81Cu0.76Eu10.27O2.15Ru2.65Sr3.22,38.0,original
Ba1.02Ca0.3Cu1.39La1.47O1.31,38.0,original
Ba1.35Cu1.39La1.47O1.33,38.0,original
Ba1.72Cu1.33Nd4.84O1.2,38.0,original
Cu0.13La2.55O0.49,38.0,original
Ba1.08Cu0.13La0.54O0.75Tl4.41,38.0,original
Cu0.76O1.31Pr0.59Sr3.22Tl4.41,38.0,original
Ba1.72Cu1.37O1.23Y2.04,38.0,original
Cu0.12Sr1.28,38.0,original
Cu0.76Gd8.95O1.59Ru2.65Sr3.22,38.0,original
Ca2.29Cl19.75Cu0.13,38.0,original
Ca2.29Cl20.57Cu0.13,38.0,original
Ca0.3Cu0.76Ga1.1O1.31Sr3.22Y1.09,38.0,original
B1.62Mg3.17,38.0,original
B1.62Mg3.14,38.0,original
Cu0.76Gd8.95O1.59Ru2.59Sr3.22,38.0,original
B1.62Mg3.07,38.0,original
B1.62Mg2.94Na0.22,38.0,original
B1.62Mg2.68Na0.54,38.0,original
B1.62Mg2.51Na0.74,38.0,original
B1.62Mg2.51,38.0,original
B1.57Mg3.17,38.0,original
Ca3.54Cu2.02F10.35O1.76Sr3.22,38.0,original
B1.62Li0.49Mg2.91,38.0,original
As1.47Ba0.21Fe2.3K2.05,38.0,original
As1.47Fe2.3K2.05Sr0.75,38.0,original
As1.47Fe2.3Sr1.46,38.0,original
As0.65F0.67Fe1.02La0.11Y1.32,38.0,original
,38.0,original
As0.65Dy3.92F0.8Fe1.02La0.57,38.0,original
As0.65F0.46Fe1.01Nd4.84,38.0,original
As14.67Ca12.24Fe10.23Pt11.53,38.0,original
As14.67Ca12.24Fe12.54Pt9.58,38.0,original
As0.65Ce5.81F0.41Fe1.02,38.0,original
As0.65Fe1.02H1.02La1.11,38.0,original
C10.41Cs31.6,38.0,original
Fe2.3Se1.15Sr1.11,38.0,original
As1.47Ba0.27Fe2.3K1.78,38.0,original
As1.47Ba0.28Fe2.3K1.71,38.0,original
Cu0.13La2.33O0.47,38.0,original
Ba1.49Cu2.02O1.59Y2.04,38.0,original
Ba0.64Cu1.08Dy10.45Fe0.38O1.44Sr1.46,38.0,original
B1.58Mg3.17,38.0,original
B1.62Mg3.16,38.0,original
Cu0.13La1.11O0.77Pb1.83Sr1.46,38.0,original
Ba1.72Cu1.39Eu4.04O1.31Pr0.28,38.0,original
Cu0.13La2.55O0.5,38.0,original
Cu0.76Gd8.95O1.59Ru2.44Sr3.22,38.0,original
B1.62Li0.41Mg2.94,38.0,original
B1.62Li0.63Mg2.84,38.0,original
B1.62Mg2.51Ti0.72,38.0,original
B1.62Mg3.11,38.0,original
B1.56Mg3.17,38.0,original
B1.62Li0.27Mg2.84,38.0,original
B1.62Mg2.84,38.0,original
As1.47Ca0.8Fe0.99,38.0,original
As3.12Eu6.81Fe4.86Rb5.68,38.0,original
As1.47Ba0.1Fe2.3K2.59,38.0,original
Cu0.83Gd8.95O1.59Ru2.37Sr3.22,38.0,original
B1.62Mg3.01,38.0,original
Bi6.54Ca1.05Cu2.02O4.01Sr6.74Tm7.72,38.0,original
Cu0.13La2.55O0.48,38.0,original
Cu0.13La1.26O0.78Pb1.51Sr1.28,38.0,original
As1.47Fe2.3K2.59Sr0.58,38.0,original
B1.62Mg6.44,38.0,original
Ca0.43Cu0.76O1.24Sm3.34Sr3.22Tl4.41,38.0,original
Cu0.13La1.26O0.77Pb1.83Sr1.28,38.0,original
B1.62Mg1.2Ti2.46,38.0,original
B1.62Mg6.42,38.0,original
Ba1.72Cu1.39O1.17Y2.04,38.0,original
Ba1.72Cu1.36O1.19Y2.04,38.0,original
Cu0.13La2.55O0.56,38.0,original
Cu0.13O0.75Sr3.04Tl4.41,38.0,original
Cu0.13La2.3O0.48,38.0,original
O1.03Ru2.37Sr3.22Y2.04,38.0,original
B1.62LiMg2.68,38.0,original
B1.62Mg1.86Ti1.59,38.0,original
As1.47Ba0.32Fe2.3K1.5,38.0,original
Fe2.21Na2.52Se1.15,38.0,original
As1.47Ba0.28Fe2.3K1.72,38.0,original
As1.47Ca0.8Fe,38.0,original
Ba1.72Cu1.33O1.24Y2.04,38.0,original
Ba1.72Cu1.36O1.21Y2.04,38.0,original
Cu0.13La2.19O0.48,38.0,original
B1.62Mg6.41Mn0.17,38.0,original
As0.65F0.46Fe0.89Nd4.84Ru0.13,38.0,original
Fe2.26K4.23Mn0.38Se1.15,38.0,original
As1.47Ba0.19Fe2.3K2.16,38.0,original
B10.52Mg6.13,38.0,original
B1.62Mg2.84Zr0.23,38.0,original
B1.62Mg2.51Zr0.62,38.0,original
B1.53Mg3.17,38.0,original
Ce2.81Cu0.76Eu10.27Nb0.59O2.15Ru0.97Sr3.22,38.0,original
As0.65Ce5.81Fe1.02H1.39,38.0,original
Cu0.13La2.26O0.48,38.0,original
B1.6Mg3.17,38.0,original
B1.62Mg2.19,38.0,original
As0.65F0.51Fe1.01Sm6.8,38.0,original
As1.47Ba0.1Fe2.17K2.59Ru0.13,38.0,original
Cu0.13La2.32O0.48,37.0,original
Cu0.13La2.3O0.48,37.0,original
Cu0.13La2.33O0.48,37.0,original
Cu0.26La1.11O0.75Sr1.46Tl3.5,37.0,original
Cu0.13La2.55O0.48,37.0,original
Bi3.16Ca0.55Cu0.76O1.59Sr3.22Y0.61,37.0,original
Ba3.88Cu3.91O3.3Y4.44,37.0,original
Cu1.24O1.31Re0.32Sr3.22Y2.04,37.0,original
Cu1.14Fe0.26O1.31Sr3.22Y2.04,37.0,original
Cu0.13La2.19O0.5Sr0.14,37.0,original
Cu0.13La2.07O0.48Sr0.28,37.0,original
Cu0.13F1.45Nd9.83O0.39,37.0,original
Cu0.13La2.29O0.48,37.0,original
Cu1.39La2.55O2.43Sr3.22Tl8.96,37.0,original
Ca1.05Cu0.76O1.24Sr3.22Tl4.41,37.0,original
Ba1.29La0.25Nd4.84O1.22,37.0,original
Ba0.64Ca1.05Cu1.39Nd4.84O1.31,37.0,original
Cu0.13La2.33O0.47,37.0,original
Ba1.72Cu1.39O1.3Pr0.28Y1.09,37.0,original
Ba1.72Cu1.39O1.2Pr0.13Y1.56,37.0,original
Ba1.72Cu1.36O1.24Y2.04,37.0,original
Cu0.12La2.29Mn0.24O0.48,37.0,original
Cu0.11La2.25Mn0.52O0.48,37.0,original
La2.2Mn0.81O0.48Sr0.12,37.0,original
La2.16Mn1.09O0.48Sr0.17,37.0,original
La2.12Mn1.37O0.48Sr0.22,37.0,original
Ba1.72Cu0.76Hg10.19O1.56Tl2.6Y1.8,37.0,original
Cu0.13La2.35O0.48,37.0,original
Cu0.13La2.2O0.48,37.0,original
Bi2.49Cu1.39O1.13Sr0.4Yb9.91,37.0,original
Cu0.76Gd8.95O1.59Ru2.65Sr3.22,37.0,original
Ba1.72Cu1.22Er7.65O1.3Zn0.34,37.0,original
Ba1.72Cu0.13O1.03Tl8.96,37.0,original
Cu0.12La2.28Mn0.24O0.48,37.0,original
Cu0.11La2.22Mn0.52O0.48Sr0.1,37.0,original
La2.16Mn0.81O0.48Sr0.17,37.0,original
Cu0.13La2.26Na0.14O0.48,37.0,original
Cu0.13La2.19Na0.34O0.48,37.0,original
Cu0.13La2.12Na0.54O0.48,37.0,original
Cu0.13La1.9Na1.14O0.48,37.0,original
Cu1.2Mo0.22O1.35Sr3.22Tb13.87,37.0,original
B1.62Mg3.01,37.0,original
B1.62Mg2.97,37.0,original
B1.62Mg3.17,37.0,original
B1.44Mg3.17,37.0,original
B1.62Mg3.15,37.0,original
Cu0.13La0.86O0.48Sm6.8,37.0,original
As1.47Ba0.21Fe2.3K2.05,37.0,original
As1.47Fe2.3K2.05Sr0.75,37.0,original
As0.65Dy10.45Fe1.02,37.0,original
As1.47Ba0.3Fe2.3K1.61,37.0,original
B1.6Mg3.17,37.0,original
B1.59Mg3.17,37.0,original
B1.56Mg3.17,37.0,original
As1.47Ba0.3Fe2.3K1.63,37.0,original
Fe1.28H3.58Li5.77Se0.54,37.0,original
As3.12Eu6.81Fe4.86Rb5.68,37.0,original
Cu0.13La2.31O0.48,37.0,original
Cu0.76Gd8.95O1.59Ru2.58Sr3.22,37.0,original
B1.62Mg1.86,37.0,original
Cu0.13Sr1.24,37.0,original
B1.62Mg6.39Mn0.24,37.0,original
As1.47Ba0.1Fe2.3K2.59,37.0,original
As1.47Ba0.32Fe2.3Rb1.65,37.0,original
As1.47Ba0.2Fe2.3K2.1,37.0,original
As3.12Cs10.49Fe4.86Sr1.46,37.0,original
Ba1.72Cu1.97O1.59Y2.04Zn0.13,37.0,original
Cu0.13La1.11O0.78Pb1.83Sr1.46,37.0,original
Cu0.13La1.11O0.76Pb1.51Sr1.46,37.0,original
Cu0.13La1.11O0.77Pb1.51Sr1.46,37.0,original
Ba0.86Cu1.39O1.2Sr1.11Yb9.91,37.0,original
B1.62Mg3.14,37.0,original
As1.47Ba0.34Fe2.3K1.4,37.0,original
As0.65Fe1.02Mg0.87O0.2Sr3.22Ti2.89,37.0,original
Cu0.13Sr1.28,37.0,original
Cu0.13Sr1.19,37.0,original
Cu0.13La2.36O0.48,37.0,original
Ba1.18Cu1.39La0.4O1.37Y2.04,37.0,original
As1.47Cs4.16Fe2.3Sr0.75,37.0,original
Ba1.72Cu1.39O1.15Y2.04,37.0,original
As3.12Ca0.12Eu5.08Fe4.86Rb5.68,37.0,original
Ba1.72Ca0.3Cu1.39O1.31Pr0.28Y0.13,37.0,original
Cu0.12La2.33O0.48,37.0,original
Ba1.35La0.18Nd4.84O1.23,37.0,original
B10.52Mg5.8,37.0,original
As1.47Ba0.32Fe2.3K1.5,37.0,original
La2.19O0.48Sr0.14,37.0,original
As1.47Ba0.1Fe2.05K2.59Ru0.41,37.0,original
Cu0.76Fe1.02Gd8.95O1.47Sr3.22,37.0,original
As1.47Ca0.8Fe0.98,37.0,original
As3.12Ca0.43Eu3.35Fe4.86Rb5.68,37.0,original
B1.62Li0.27Mg2.84,37.0,original
B1.35Mg3.17,37.0,original
Co0.14La2.19O0.48Sr0.14,37.0,original
As0.65Fe1.02O0.2Sr3.22V0.73,37.0,original
As0.65F0.2Fe1.02Sm6.8,37.0,original
As0.57F0.51Fe1.02P0.1Sm6.8,37.0,original
As1.47Ca0.79Fe1.02,37.0,original
Ba1.72Cu1.39O1.24Sm6.11,37.0,original
Cu0.76Gd8.95O1.59Ru2.62Sr3.22,37.0,original
Cu0.76Gd8.95O1.59Ru2.51Sr3.22,37.0,original
B1.48Mg3.17,37.0,original
As3.12Ca1.05Fe4.86Rb5.68,37.0,original
B1.53Mg3.17,37.0,original
B1.55Mg3.17,37.0,original
B1.62Mg3.07,37.0,original
As0.65F0.67Fe1.02La0.68Y0.37,37.0,original
Ba1.72Co0.23Cu1.97O1.59Y2.04,37.0,original
As1.47Ca0.78Ce1.13Fe2.3,37.0,original
As0.65Fe1.02H1.61La1.11,37.0,original
B1.58Mg3.17,37.0,original
B1.62Mg2.84,37.0,original
Cu0.13La2.12O0.48,36.0,original
Cu0.13La2.33O0.48,36.0,original
Ba1.73Co1.23Cu1.2O1.26Y2.04,36.0,original
Ba1.73Cu1.2Fe0.13Y2.07,36.0,original
Ba1.72Co1.23Cu1.2O1.34Y2.04,36.0,original
Cu0.13La2.26O0.48,36.0,original
Cu0.13La2.3O0.48,36.0,original
Ba1.72Cu1.2Fe0.13O1.35Y2.04,36.0,original
Ba3.88Cu3.91O3.28Y4.44,36.0,original
Ba1.72Cu1.39O1.21Pr0.36Tm3.83,36.0,original
Bi3.08Cu0.13La0.25O0.48Sr2.6,36.0,original
Bi2.49Cu0.13La0.25O0.48Pb1.18Sr2.52,36.0,original
Ba1.72Cu0.13Hg7.24O0.5,36.0,original
Ba0.64Cu1.39O1.28Pr0.36Sr1.46Y0.85,36.0,original
Ca0.43Cd5.88Cu0.76O1.31Pb1.51Sr2.52Y0.85,36.0,original
Ba1.18Cu1.39Nd6.34O1.3,36.0,original
Ba1.18Cu1.39Nd6.34O1.29,36.0,original
Cu0.13La2.55O0.49,36.0,original
Cu0.13La2.31O0.48,36.0,original
Cu0.13La2.35O0.48,36.0,original
Cu0.76Gd8.95O1.59Ru2.65Sr3.22,36.0,original
Ba1.72Cu1.24Er7.65O1.28Zn0.46,36.0,original
Cu0.13Hg5.04Mo0.22O0.48Sr3.22,36.0,original
Ba1.72Cu0.13Hg7.24O0.48,36.0,original
Ca2.29Cl18.92Cu0.13,36.0,original
Ba2.8Ca0.18Cd8.25Cu3.91La3.98O3.91,36.0,original
B1.55Mg3.17,36.0,original
B1.62Mg2.84,36.0,original
Al0.14B1.62Mg2.51,36.0,original
B1.62Mg3.07,36.0,original
B1.44Be0.13Mg3.17,36.0,original
B1.62Mg3.17,36.0,original
B1.62Mg1.53,36.0,original
As1.47Ba0.1Fe2.3K2.59,36.0,original
As1.47Fe2.3K2.05Sr0.75,36.0,original
As1.47Fe2.3K3.03Sr0.44,36.0,original
As0.65F0.41Fe1.02Ho10.97,36.0,original
Cu0.13La2.29O0.48,36.0,original
Al1.31As1.47Ca7.27Fe2.3O2.71Ti11.47,36.0,original
As1.47Ca6.02Fe2.3O2.15Sc9.97Ti8.52,36.0,original
As1.47Ca4.78Fe2.3O2.99Sc9.97Ti12.85,36.0,original
As1.47Ca6.02Fe2.3Mg3.17O2.01Ti12.85,36.0,original
As1.47Ba0.32Fe2.3K1.5,36.0,original
As0.65Fe1.02H1.24La1.11,36.0,original
Fe2.21Na2.52Se1.03,36.0,original
As0.46Fe1.02H0.66P0.34Sm6.8,36.0,original
As3.12Eu6.81Fe4.86Rb5.68,36.0,original
As3.12Ca0.74Eu1.62Fe4.86Rb5.68,36.0,original
As3.12Ca1.05Fe4.86K5.32,36.0,original
Ba1.72Cu1.39Nd4.34O1.24,36.0,original
Ba1.35Cu1.39Nd6.59O1.32,36.0,original
Cu0.13La1.11O0.79Pb1.83Sr1.46,36.0,original
Cu0.13La2.26Nd0.84O0.5,36.0,original
B1.62Mg3.14,36.0,original
B1.62Mg3.11,36.0,original
B0.73Mg3.11,36.0,original
Ba1.72Cu1.39O1.17Y1.68,36.0,original
Bi2.82Ca1.05Co0.59Cu0.66O1.59Pb0.53Sr3.22,36.0,original
Ba1.72Cu1.39O1.15Y2.04,36.0,original
B1.62Mg2.94,36.0,original
B1.26Mg3.17,36.0,original
As1.47Ba0.27Fe2.3Rb1.93,36.0,original
Ba1.72Cu1.39O1.16Y2.04,36.0,original
B1.62LiMg2.68,36.0,original
As0.65Fe1.02Tb13.87,36.0,original
C10.41Cs31.6,36.0,original
As0.65Ca0.68Fe1.02H3.58La0.11,36.0,original
B1.58Li0.34Mg2.97,36.0,original
As0.65Fe1.02La0.68Y0.37,36.0,original
Fe1.28H3.58Li5.77Se0.4,36.0,original
B1.62Li0.63Mg2.84,36.0,original
Cu0.13H0.29La2.26O0.48,36.0,original
B0.28Ba0.1Cu1.08O1.31Sr2.34Y1.68,36.0,original
Bi3.08Cu0.13La0.25O1.12Sr2.6,36.0,original
Ba1.72Cu1.39O1.17Y2.04,36.0,original
B0.69Mg3.17,36.0,original
B1.62Mg2.91,36.0,original
B1.58Mg3.17,36.0,original
B1.53Mg3.17,36.0,original
Cu0.13H0.29La2.33O0.48,36.0,original
Ba1.72Ca0.3Cu2.27La2.26O2.35Pr0.13,36.0,original
As2.3Ba0.64Fe2.3,36.0,original
Ba1.72Ca0.8Cu0.76Hg10.19O1.5Tl2.6Y0.13,36.0,original
B1.62Li0.71Mg2.81,36.0,original
As3.12Ca1.05Fe1.02Rb5.68,36.0,original
Ba1.72Cu1.26O1.31Y2.04Zn0.4,36.0,original
As1.47Fe2.3K3.14,36.0,original
As0.57F0.41Fe1.02P0.1Pr0.75,36.0,original
B1.62Mg2.71,36.0,original
As1.47Ca0.86Fe1.02,36.0,original
As14.67Ca10.81Fe12.54La1.33Pt7.15,36.0,original
As1.47Ca0.8Fe0.97,36.0,original
As3.12Fe4.86Rb5.68Sr1.46,36.0,original
Cu0.13La2.12Nd0.35O0.48,35.0,original
Ba1.72Cu1.39Er7.65O1.08,35.0,original
Cu0.13La2.33O0.48,35.0,original
Cu0.13La2.38O0.48,35.0,original
Ba1.72Cu1.39O1.31Pr0.28Y1.09,35.0,original
Cu0.13Nd0.54Sr1.21,35.0,original
B0.28Ba0.43Cu1.08O1.31Sr1.81Y2.04,35.0,original
B0.28Ba1.29Cu1.08O1.31Sr0.4Y2.04,35.0,original
Ba3.88Cu3.91Nd9.83O3.65,35.0,original
Cu1.2O1.38Sr3.22Ti1.16Y2.04,35.0,original
Bi3.08Cu0.13O0.48Pr0.28Sr2.6,35.0,original
Bi3.08Cu0.13Nd1.84O0.48Sr2.6,35.0,original
Ba1.72Cu0.13Hg7.24O0.5,35.0,original
Cu0.13La1.11O0.48Sm5.42,35.0,original
Ba0.43Cu1.39O1.27Sr0.4Yb7.91,35.0,original
Ba0.97Nd6.34O1.26Sr0.4,35.0,original
Ba0.1Cu1.27O1.31Sr2.34Ti0.72Y2.04,35.0,original
Cu0.13La2.55O0.49,35.0,original
Cu0.13Nd0.69Sr1.16,35.0,original
Ba0.64Ca1.05Cu1.39Nd4.34O1.31,35.0,original
Ba1.72Cu1.39O1.15Y2.04,35.0,original
Ba1.72Cu0.13Hg6.14O0.64Re0.17,35.0,original
Cu0.76O1.59Ru2.65Sr3.22Y2.04,35.0,original
Cu0.76Eu6.81O1.59Ru2.65Sr3.22,35.0,original
Cu0.76Gd8.95O1.59Ru2.65Sr3.22,35.0,original
Cu0.13La2.3O0.48,35.0,original
Ba1.18Cu0.13La0.4O0.75Tl4.41,35.0,original
Ba1.72Cu1.39F3.86O1.03Y2.04,35.0,original
Ba1.4Cu1.39Lu1.76O1.29Pr0.32Sr0.22,35.0,original
Ba1.72Ca1.05Cu0.76Hg7.24O1.59Tl4.41,35.0,original
Cu0.13La2.14Nd0.47O0.48,35.0,original
Ba1.18Ca0.3Cu1.39La1.26O1.38,35.0,original
Ba1.08Cu1.39La1.83O1.3,35.0,original
Ba0.97Cu1.39La1.83O1.3,35.0,original
Cu0.13La2.07O0.48Pr0.12,35.0,original
Cu0.13La2.36O0.48,35.0,original
Ba1.72Cu1.39O1.3Pr0.28Y1.09,35.0,original
Ba1.56Cu1.39O1.32Sm6.8,35.0,original
Ba1.72Cu1.36O1.23Y2.04,35.0,original
Ba1.72Cu1.36O1.24Y2.04,35.0,original
Cu0.13La2.35O0.48,35.0,original