formula,Tc
Nb3Al0.927Ga0.073,19.200
Nb0.75Al0.23Ge0.02,19.200
C60K3,19.200
Sr1Fe1.8Co0.2As2,19.200
Ba0.2Na0.8Fe2As2,19.200
Sr1Fe2As1.08P0.92,19.200
Ba1Fe1.58Ru0.42As2,19.200
Ba1Fe1.9Ni0.1As2,19.200
Nd1.35La0.5Ce0.15Cu1O4,19.100
Gd0.05Sm1.8Ce0.15Cu1O4,19.100
La1.9Sr0.1Cu0.995Zn0.005O4,19.100
Al0.95B0.05Nb3,19.100
Nb3Al0.75Ga0.3,19.100
Nb3Al0.907Ga0.093,19.100
Nb0.75Al0.225Ga0.025,19.100
Nb0.75Al0.175Ga0.075,19.100
Ba2Ti2Fe1.98Cr0.02As4O1,19.100
Ge1Nb3,19.090
La1Fe1As0.6P0.4F0.05O0.95,19.080
La1.85Ca0.15Cu1O3.942,19.000
Y1Ba2Cu2.7Zn0.3O7,19.000
Pr1.85Ce0.15Cu1O4,19.000
La1.76Sr0.24Cu1O4,19.000
La1.93Ba0.07Cu1O4,19.000
La1.842Ba0.158Cu0.99Ni0.01O4,19.000
Nd1.15La0.7Ce0.15Cu1O4,19.000
Dy0.5Pr0.5Ba2Cu3O6.85,19.000
Nd1.85Ce0.15Cu1O3.98,19.000
Y0.88Ca0.12Sr2Cu2.5Fe0.5O6.89,19.000
Bi1.95Sr1.25La0.8Cu1O4,19.000
Pb0.5Cd0.5Sr2Tb0.6Ca0.4Cu2O7,19.000
Pb0.5Cd0.5Sr2Tb0.5Ca0.5Cu2O7,19.000
Ba1.6Sr0.4Yb0.85Ca0.15Cu3O6.36,19.000
Nd1.794Y0.056Ce0.15Cu1O4,19.000
Ba0.54K0.46Bi1O3,19.000
La1.78Sr0.22Cu0.995Zn0.005O4,19.000
La1.81Sr0.19Cu0.99Zn0.01O4,19.000
Nd2Cu1F0.3O4,19.000
Tm1Ba2Cu3O6.41,19.000
La1.93Sr0.07Cu1O4,19.000
Nd1.665Gd0.185Ce0.15Cu1O4,19.000
Ru1Sr2Gd1Cu1.9Li0.1O8,19.000
Nd1.85Ce0.15Cu1O4,19.000
Ca1.85Na0.15Cu1Br1Cl1O2,19.000
Ca1.8Na0.2Cu1Br1Cl1O2,19.000
Ca1.75Na0.25Cu1Br1Cl1O2,19.000
Pr0.85La1Ce0.15Cu1O3.95,19.000
Y1Ba2Cu3O6.375,19.000
Al0.5Ga0.5Nb3,19.000
Nb3Al0.967Ga0.033,19.000
Nb3Al0.991Ge0.009,19.000
Nb3Al0.5Ga0.5,19.000
C60K3,19.000
Li1Hf0.45Zr0.55N1Br1,19.000
Na0.29Hf1N1Cl1,19.000
Na0.8Hf1N1Cl1,19.000
Ru0.85Rh0.15Sr2Gd1Cu2O8,19.000
La1.85Sr0.15Cu0.984Zn0.016O4,19.000
La1Fe1As1F0.14O0.86,19.000
Ca1Fe1.888Co0.112As2,19.000
Ba0.66K0.34Fe1.8Co0.2As2,19.000
Ba1Fe1.81Zn0.06Co0.13As2,19.000
Ba1Fe1.79Zn0.08Co0.13As2,19.000
Ca1Fe0.83Co0.17As1H1,19.000
Sm1Fe1As0.55P0.45H0.08O0.92,19.000
La1Fe1As0.6P0.4F0.05O0.95,19.000
Ba0.788K0.212Fe2As2,19.000
La0.97Y0.03Fe0.995Mn0.005As1F0.11O0.89,19.000
Ba1Fe1.88Ni0.12As2,19.000
Ba1Fe1.78Co0.22As2,18.960
Ba0.45K0.55Bi1O2.83,18.950
La1.8Sr0.2Cu1O4,18.900
Y1Ba2Cu2.94Zn0.06O6.65,18.900
Y1Ba2Cu2.94Zn0.06O6.59,18.900
Y1Ba1.72La0.28Cu4O8,18.900
Al0.9Ge0.1Nb3,18.900
Pr1.85Ce0.15Cu0.995Zn0.005O4.065,18.900
Ba1Fe1.914Pd0.086As2,18.900
La0.92Sr0.08Fe1As1O1,18.900
Ba1Fe1.48Ru0.52As2,18.900
Ba1Fe1.908Ni0.092As2,18.900
Ba1Fe1.8Co0.2As2,18.900
Ca7.16Ce2.84Pt3Fe10As18,18.900
Ca7.65Nd2.35Pt3Fe10As18,18.900
Ba1Fe1.91Ni0.09As2,18.900
Pr1.85Ce0.15Cu1O4.161,18.850
La1.87Sr0.13Cu0.99Zn0.01O4,18.830
La1.89Ba0.11Cu1O4,18.800
Sm1.35Gd0.5Ce0.15Cu1O3.97,18.800
Al1Nb3,18.800
Nb3Al0.983Ga0.017,18.800
Sm1Fe0.94Ni0.06As1F0.12O0.88,18.800
Na1Fe0.98Co0.02As1,18.800
Ba2Ti2Fe2As4O1,18.750
C60K3,18.700
Ba0.65K0.35Bi1O2.99,18.700
Y0.5Pr0.5Ba2Cu3O6.65,18.700
Ba0.52K0.48Bi1O3,18.700
Al0.24Nb0.76,18.700
Al1Nb3,18.700
Nb0.73Al0.255Si0.015,18.700
Nb3Al0.67Ga0.33,18.700
Ca10Ir4Fe10As18,18.700
Y1Ba2Cu2.94Zn0.06O6.59,18.600
Y1Ba2Cu3O6.33,18.600
La1.85Sr0.15Cu0.988Co0.012O4,18.600
La1.84Sr0.16Cu0.98Zn0.02O4,18.600
Ba0.5K0.5Bi1O3,18.600
Sm1.85Ce0.15Cu1O4,18.600
Al1Nb3,18.600
Ga0.25Si0.75V3,18.600
Ga1Si1V3,18.600
Nb3Al0.985Si0.015,18.600
Nb0.75Al0.2Ge0.05,18.600
Al0.25Nb0.75,18.600
Nb3Si1,18.600
Ba1Fe1.898Co0.102As2,18.600
Ca9.58Y0.42Pt3Fe10As18,18.600
Ba1Fe1.88Ni0.12As2,18.600
La0.95Y0.05Fe0.995Mn0.005As1F0.11O0.89,18.600
Ba0.2Na0.8Fe2As2,18.600
Na1Fe1Ni0.015As1,18.600
Nb0.580Ga0.154Al0.266,18.550
Nb3Al0.8Ga0.2,18.540
Al1Nb3,18.520
Nd2Cu1F0.4O3.6,18.500
Nd2Cu1F0.3O3.7,18.500
Gd0.2Nd1.65Ce0.15Cu1O4,18.500
La1.85Sr0.15Cu0.98Ni0.02O4,18.500
Gd0.02Pr1.83Ce0.15Cu1O4,18.500
La1.78Sr0.22Cu0.998Zn0.003O4,18.500
Pu1Co1Ga5,18.500
Nb0.8Sn0.2,18.500
Nb3Al0.975Si0.025,18.500
Nb3Al0.956Si0.044,18.500
Nb0.75Al0.2Ge0.05,18.500
Nb3Al0.9Ga0.1,18.500
Nb3Al0.5Ga0.5,18.500
Nb3Ga0.5Al0.5,18.500
Sm1Fe0.8Ru0.2As1F0.15O0.85,18.500
Ca1Fe1.898Co0.102As2,18.500
Ba1Fe1.906Co0.094As2,18.500
La0.81Sm0.06Sr0.13Fe1As1O1,18.500
Ba1Fe1.85Zn0.04Co0.11As2,18.500
Ba1Fe1.908Ni0.082As2,18.500
Al1Nb3,18.450
Pr1.85Ce0.15Cu0.99Zn0.01O4.065,18.410
Nd1.85Ce0.15Cu1O4,18.400
Nd0.95La0.9Ce0.15Cu1O4,18.400
Ba0.6K0.4Bi0.969Pr0.031O3,18.400
Nb3Sn0.9Al0.1,18.400
Al0.245Nb0.725,18.400
Nb3Al0.98Se0.02,18.400
Nb3Al0.964Si0.036,18.400
Nb3Al0.945Si0.055,18.400
Nb3Al0.935Si0.065,18.400
Nb3Al0.9Ge0.1,18.400
Al3Nb3,18.400
Ca1.88Na0.12Cu1Cl2O2,18.400
Ba1Fe1.908Ni0.092As2,18.400
Ca1Fe0.85Rh0.15As1F1,18.400
Ba0.1Na0.9Fe2As2,18.400
Li0.8Fe1.2Se0.34S0.66H1O1,18.400
La1.7Sr0.3Cu1O4,18.300
Yb0.45Pr0.55Ba2Cu3O6.92,18.300
La1.78Sr0.22Cu0.99Zn0.01O4,18.300
Al0.23Nb0.75Zr0.013,18.300
Nb3Sn1,18.300
Nb0.71Sn0.29,18.300
Nb0.516Ga0.069Al0.415,18.300
Nb3Al0.9In0.1,18.300
Nb3Sn0.9Ga0.1,18.300
Nb3Ga0.05Sn0.95,18.300
Nb3In0.15Sn0.85,18.300
Nb3Sn0.91Ga0.09,18.300
Nb2.85Ta0.15Sn1,18.300
Li1Fe1As1,18.300
Ba1Fe1.906Co0.094As2,18.300
Sm1Fe0.89Ir0.11As1O1,18.300
Ba0.5K0.5Fe1.8Zn0.2As2,18.300
La1Fe0.7Ru0.3As1F0.11O0.89,18.300
Nb3Bi0.15Sn0.85,18.280
Pr1.85Ce0.15Cu0.985Zn0.015O4.065,18.280
Ba1Fe1.91Ni0.09As2,18.270
In0.15Nb3Sn0.85,18.260
Nb0.498Ga0.044Al0.457,18.250
Nb3Tl0.1Sn0.9,18.250
Pu1Co1Ga5,18.250
Nb3Pb0.15Sn0.85,18.240
Bi0.15Nb3Sn0.85,18.230
La1.822Ba0.178Cu0.99Ni0.01O4,18.200
La1.91Ce0.09Cu1O4,18.200
Ga0.5Si0.5V3,18.200
Nb0.72Sn0.28,18.200
Nb3Sn0.85Tl0.15,18.200
Al1Nb3,18.200
Ga0.250Nb0.750,18.200
Li1Hf0.2Zr0.8N1Cl1,18.200
Nb3Al0.05Sn0.95,18.200
Ce1Fe1As0.7P0.3F0.05O0.95,18.200
Sm1Fe0.9Zn0.1As1F0.2O0.8,18.200
Ba1Fe1.915Ni0.085As2,18.200
Ca9.4La0.6Pt3Fe10As18,18.200
Nb3As0.05Sn0.95,18.190
Nb0.8Sn0.2,18.180
Nb3Pb0.15Sn0.85,18.160
Ga0.15Nb3Sn0.7Tl0.15,18.140
Bi0.15Nb3Sn0.7Tl0.15,18.120
Ga0.15Nb3Pb0.15Sn0.7,18.110
Nd1.85Ce0.15Cu0.996Zn0.004O4,18.100
Bi1.5Pb0.5Sr1.5La0.5Cu1O6.074,18.100
Pb2Cu2La1.1O7.42,18.100
La1.83Sr0.17Cu0.98Mn0.02O4,18.100
Nd1.85Ce0.15Cu1O4.034,18.100
Al1Nb3,18.100
Nb0.76Sn0.74,18.100
Nb3Sn0.9Ga0.1,18.100
Nb3Al0.967Se0.033,18.100
Nb3Al0.8In0.2,18.100
Nb3Al0.9Zn0.1,18.100
Nb3Sn0.95Ge0.05,18.100
Nb3Sn0.9In0.1,18.100
Nb3Ga0.67Al0.33,18.100
Nb3Ga0.65Al0.35,18.100
Nb3Sn1,18.100
Nb2.85Zr0.15Sn1,18.100
Nb2.7Zr0.3Sn1,18.100
Sm0.716La1.084Sr0.2Cu1O4,18.100
Sr1Fe1.75Co0.25As2,18.100
Ce1Fe1As0.7P0.3F0.05O0.95,18.100
Rb1Eu1Fe3.76Ni0.24As4,18.100
As0.15Bi0.15Nb3Sn0.7,18.070
Nb3Sn1,18.070
Al0.9Nb3Sb0.1,18.060
Nb3Ga0.2Bi0.2Sn0.6,18.060
Ru0.6Sn0.4Sr2Gd1Cu2O8,18.050
As0.15Nb3Pb0.15Sn0.7,18.050
Nb3Sn1,18.050
Bi0.15Ga0.15Nb3Sn0.7,18.040
As0.15Ga0.15Nb3Sn0.7,18.010
Bi0.15In0.15Nb3Sn0.7,18.010
Pr1.85Ce0.15Cu0.98Zn0.02O4.065,18.010
Ba0.6K0.4Bi1O3,18.000
Nd1.25La0.6Th0.15Cu1O4,18.000
C60K3,18.000
Bi2Sr2Ca0.5Y0.5Cu2O8.36,18.000
Y1Sr2Cu2.8Ge0.2O1,18.000
Bi2Sr1.8La0.2Cu1O6.3,18.000
Y0.9Ca0.1Ba2Cu2.55Co0.45O7.02,18.000
Bi1.95Sr1.45Nd0.6Cu1O4,18.000
Ca1.9K0.1Cu1Cl2O2,18.000
Y0.4Pr0.6Ba1Sr1Cu3O6.92,18.000
Pr1.74Ce0.15Sr0.11Cu1O3.96,18.000
Pr1.85Ce0.15Cu1O3.98,18.000
Ba0.54K0.46Bi1O3,18.000
La1.75Nd0.1Ca0.064Ba0.086Cu1O4,18.000
Al1Sr2Ho0.5Ca0.5Cu2O7.05,18.000
Sr0.81Nd0.19Cu1O2,18.000
Nd1.758Y0.092Ce0.15Cu1O4,18.000
La1.9Er0.1Ba2Ca0.2Cu4.2O9.85,18.000
La1.925Sr0.075Cu1O4,18.000
La1.03Pr0.85Sr0.12Cu1O4,18.000
Nd1.85Ce0.15Cu0.995Zn0.005O4,18.000
La1.77Sr0.23Cu0.99Ni0.01O4,18.000
La1.78Sr0.22Cu0.993Zn0.007O4,18.000
La1.77Sr0.23Cu0.995Zn0.005O4,18.000
La1.83Sr0.17Cu0.98Co0.02O4,18.000
Nd2Cu1F0.5O4,18.000
Gd1Ba1.5Sr0.5Cu3O6.63,18.000
La1.75Sr0.25Cu1O4,18.000
Y1Ba2Cu2.95Zn0.05O6.47,18.000
Nd1.48Gd0.37Ce0.15Cu1O4,18.000
La1.9Sr0.1Cu1O4,18.000
Mo1Sr2Sm1.5Ce1Cu2O10,18.000
Ca1.75Na0.25Cu1Br2O2,18.000
Ca1.65Na0.35Cu1Br2O2,18.000
Nb3Sn1,18.000
Nb3Sn0.94Al0.06,18.000
Nb3Sn0.96Al0.04,18.000
Nb3Sn0.8Ge0.2,18.000
Nb0.747Al0.239Si0.014,18.000
Nb2.985Hf0.015Al1,18.000
Nb2.97W0.03Al1,18.000
Nb3Al0.952Se0.048,18.000
C60Cs3,18.000
Mg0.88Ir0.12B2,18.000
Mg0.7Al0.3B2,18.000
C3Y2,18.000
Nb3Sn0.9Ge0.1,18.000
Nb1Sn3,18.000
Nb2.7Ta0.3Sn1,18.000
Al0.05Nb3Sn0.95,18.000
Nb3Si1,18.000
La1.59Na0.41Cu1O4,18.000
La1Fe1As1F0.06O0.94,18.000
Li1Fe1As1,18.000
Pu1Co1Ga5,18.000
La1Fe1As1F0.14O0.86,18.000
La0.77Sm0.1Sr0.13Fe1As1O1,18.000
Sm1Fe0.94Ir0.06As1O1,18.000
Ba0.694K0.306Fe1.826Co0.174As2,18.000
Na0.9Fe1As1,18.000
Nb0.76Fe1.61Se0.96S1.04,18.000
Sr0.8Eu0.2Fe1.78Co0.22As2,18.000
Eu0.5K0.5Fe1.9Ni0.1As2,18.000
Ba0.79K0.21Fe2As2,18.000
Ba0.85K0.15Fe2As2,18.000
Ba1Fe1.857Co0.13Mn0.013As2,18.000
Ba0.698Na0.302Fe2As2,18.000
Ba1Fe1.915Ni0.085As2,18.000
As0.15In0.15Nb3Sn0.7,17.990
As0.15Nb3Sn0.7Tl0.15,17.980
As0.15Nb3Sn0.85,17.980
Al0.215Nb0.785,17.970
Nb3Ge0.1Sn0.9,17.970
Nb3Sn1,17.930
Nb0.5Sn0.5,17.910
La1.85Sr0.15Cu0.988Al0.012O4,17.900
La1.8Ba0.2Cu1O4,17.900
Nb3Sn1,17.900
Nb3Sn0.98Al0.02,17.900
Nb3Sn0.92Al0.08,17.900
Nb1C0.28N0.78,17.900
Al1Nb3,17.900
Nb0.75Al0.175Ge0.075,17.900
Nb0.75Al0.225Ge0.025,17.900
Nb3.05Al0.713Ge0.19,17.900
Nb1C0.5N0.5,17.900
Nb2.85Ti0.15Sn1,17.900
Nb2.55Zr0.45Sn1,17.900
Nd1.85Ce0.15Cu0.91Mn0.09O4,17.900
La1.82Sr0.18Cu0.98Zn0.02O4,17.900
Na1Fe0.99Co0.01As1,17.900
Nb0.76Al0.18Ge0.06,17.880
Ba1Fe1.91Ni0.09As2,17.860
Nb3Ge0.2Pb0.2Sn0.6,17.840
Ge0.15Nb3Pb0.15Sn0.7,17.820
Al0.95Nb3Sb0.5,17.810
La1.7Sr0.3Cu1O4,17.800
Y1Ba2Cu2.95Fe0.05O6.55,17.800
Gd0.11Sm1.74Ce0.15Cu1O4,17.800
C60K3,17.800
La1.89Ba0.11Cu1O4,17.800
Y1Ba1.9La0.1Cu3.93Zn0.07O8,17.800
C0.25N0.75Nb0.85Ti0.15,17.800
C0.35N0.65Nb1,17.800
Ge0.15Nb3Sn0.85,17.800
Nb3Si0.06Sn0.94,17.800
Nb0.69Sn0.25Ta0.06,17.800
Nb3Sn0.8Ga0.2,17.800
Nb2.75Ta0.25Sn1,17.800
Nb2.75Sn1Ta0.25,17.800
Nb1C0.3N0.7,17.800
Nb3Al0.94Se0.06,17.800
Nb3Al0.8B0.2,17.800
Al1Nb3,17.800
Nb1C0.3N0.64,17.800
Nb3Sn0.8In0.2,17.800
Nb3Sn0.9Al0.1,17.800
Nb3Sn0.91Al0.09,17.800
Pu1Co1Ga5,17.800
La1.45Nd0.4Sr0.15Cu1O4,17.800
La1Fe1As1F0.14O0.86,17.800
Ba1Fe1.808Rh0.192As2,17.800
Ba1Fe1.908Ni0.092As2,17.800
Ba1Fe1.922Rh0.078As2,17.800
Li1Fe1As1,17.800
Ca0.5Na0.5Fe2As2,17.800
Na1Fe0.99Co0.01As1,17.800
La1Fe1As1H0.21O0.79,17.800
Sm1Fe1As0.85P0.15F0.12O0.88,17.800
Ba0.31K0.69Fe2As2,17.800
Na1Fe1Ni0.01As1,17.800
Ba1Fe1.52Ru0.48As2,17.800
Nb3Sn1,17.800
Nb3Sn1,17.770
Bi0.15Ge0.15Nb3Sn0.7,17.750
Nb3Sn1,17.750
La1.78Sr0.22Cu0.98Ni0.02O4,17.700
La1.8Sr0.2Cu0.98Zn0.02O4,17.700
La1.4Nd0.4Sr0.2Cu1O4,17.700
Al0.9Ga0.1Nb3,17.700
Nb2.976Ti0.024Al1,17.700
Nb2.94Ta0.06Al1,17.700
Nb1C0.3N0.7,17.700
Nb3Al0.8Zn0.2,17.700
Nb3Sn0.8Ge0.2,17.700
Nb2.34Zr0.66Sn1,17.700
Nb2.1Zr0.9Sn1,17.700
Nb2.934V0.066Sn1,17.700
La1.85Sr0.15Cu0.99Fe0.01O4,17.700
Ca1Fe1.9Co0.1As2,17.700
Nb1N0.98O0.02,17.700
Pr1.86Ce0.14Cu1O4,17.700
Na1Fe1Ni0.013As1,17.700
Nb3Sn0.8Ge0.2,17.650
La1.885Sr0.115Cu0.995Zn0.005O4,17.640
N0.85Nb0.66Ti0.34,17.610
Sr2Y1Ru0.92Cu0.08O6,17.600
Mg1B1.736C0.264,17.600
Nb3Sn1,17.600
Nb0.625Sn0.25Ta0.125,17.600
Nb2.5Ta0.5Sn1,17.600
Nb3Al0.81Ge0.19,17.600
Nb2.5Sn1Ta0.5,17.600
Nb2.993Zr0.007Al1,17.600
Nb3Al0.924Se0.076,17.600
Nb3Al0.9Se0.1,17.600
Ga0.308Nb0.692,17.600
Nb1C0.2N0.8,17.600
Li0.8Fe1As1,17.600
Gd1Fe0.8Ir0.2As1O1,17.600
La1Fe0.75Ru0.25As1F0.11O0.89,17.600
Nb0.95Mg0.05N0.92O0.08,17.600
Ca9.75Er0.25Pt3Fe10As18,17.600
Ca0.85Sm0.15Fe1As2,17.600
Sr1Fe1.8Co0.2As2,17.530
Eu0.95La0.9Ce0.15Cu1O4,17.500
Nd2Cu1F0.5O3.5,17.500
Cu2Ge0.25Sr2Y1.3Ce0.7O8.59,17.500
La1.745Nd0.14Sr0.115Cu1O4,17.500
La1.75Nd0.125Sr0.125Cu1O4,17.500
La1.85Sr0.15Cu0.98Zn0.02O4,17.500
La1.8Sr0.2Cu0.98Zn0.02O4,17.500
Nb0.5Sn0.5,17.500
Al0.534Nb0.466,17.500
Al1Nb3,17.500
Nb1C0.2N0.74,17.500
Nb3Si1,17.500
Li1Fe1As1,17.500
Al1Nb1Sn1,17.450
La1.85Sr0.15Cu0.975Ni0.025O4,17.400
Gd0.07Pr1.78Ce0.15Cu1O4,17.400
La1.78Sr0.22Cu0.98Ni0.02O4,17.400
Nb3Sn1,17.400
Al1Nb3,17.400
Nb2.97Zr0.03Al1,17.400
Nb0.768Al0.146Ge0.086,17.400
Nb0.743Zr0.007Al0.25,17.400
Nb3.07Al0.586Ge0.279,17.400
Nb1C0.5N0.47,17.400
Nb3Al0.5Ge0.5,17.400
Ba1Fe1.8Co0.2As2,17.400
Ba1Fe1.82Ni0.18As2,17.400
Li1Fe1As1,17.400
Pr1Fe1As0.4P0.6F0.1O0.9,17.400
Ca1Fe1.93Co0.07As2,17.400
S1,17.400
Na1Fe1Ni0.008As1,17.400
Nd1.85Ce0.15Cu0.998Ni0.002O4,17.300
Bi1.2Pb0.8Sr1.6La0.4Cu1O6.014,17.300
Nd1.65Y0.2Ce0.15Cu1O4,17.300
C3Y2,17.300
C1N1Nb1,17.300
N0.998Nb1O0.002,17.300
N1Nb1,17.300
Nb0.8Sn0.2,17.300
Nb1C0.5Ni0.5,17.300
Nb0.753Ga0.247Fe0.000,17.300
Nb1C0.3N0.62,17.300
Nb3Al0.67Zn0.33,17.300
Nb2.4Ta0.6Sn1,17.300
Sm1Fe1As1F0.12O0.88,17.300
Sm1Fe0.9Co0.1As1O1,17.300
Sm1Fe0.84Ir0.16As1O1,17.300
Li1Fe1As1,17.300
Nb0.89Al0.11N0.85O0.17,17.300
Nb3Sn1,17.300
Nb3Sn1,17.290
Pr1.85Th0.15Cu1O3.98,17.200
Ba0.51K0.49Bi1O3,17.200
Nd1.85Ce0.15Cu1O4,17.200
La1.42Nd0.4Sr0.18Cu1O4,17.200
C0.026N0.974Nb1,17.200
Nb3Sn2,17.200
Nb3Al0.62Ge0.38,17.200
Nb2.94W0.06Al1,17.200
Nb2.859V0.141Al1,17.200
Nb0.536Ga0.095Al0.369,17.200
Nb1C0.2N0.7,17.200
Nb3Sn1,17.200
Sm1La0.802Sr0.198Cu1O4,17.200
Ca1Fe1.87Co0.13As2,17.200
Ba1Fe1.8Co0.2As2,17.200
La1Fe0.7Ru0.3As1F0.11O0.89,17.200
Ce1Fe1As0.95P0.05F0.05O0.95,17.200
Sr1Fe1.2Ru0.8As2,17.200
Nb1N0.87O0.13,17.200
K0.21Ti1N1Br1,17.200
Ba0.807K0.193Fe2As2,17.200
Ba1Fe1.906Co0.094As2,17.150
Al1Nb3,17.110
La1.8Sr0.2Cu0.98Ni0.02O4,17.100
Y1Ba2Cu3O6.41,17.100
B2Mg1,17.100
Si0.25V0.75,17.100
Si1V3,17.100
Al0.25Nb0.75,17.100
C60K3,17.100
Nb3Ga0.85Al0.15,17.100
Nb2.85V0.15Sn1,17.100
Sm1Fe1As1F0.12O0.88,17.100
Ba1Fe1.904Co0.096As2,17.100
Ba1Fe1.73Co0.27As2,17.100
Ca1Fe1.8Co0.2As2,17.100
La0.81Gd0.06Sr0.13Fe1As1O1,17.100
Ca4Al2Fe2P2O6,17.100
Ba1Fe2As0.48P1.52,17.100
Nb3Sb0.1Sn0.9,17.040
La1.85Ca0.15Cu1O4,17.000
Nd1.85Th0.15Cu1O3.98,17.000
La1.9Ba0.1Cu0.99Ni0.01O4,17.000
Sr2Y0.7Ca0.3Cu2.35Pb0.65O6.89,17.000
La1.875Ba0.05Sr0.075Cu1O4,17.000
Y1Sr2Cu2.65Ga0.35O6.6,17.000
Bi1.95Sr1.25Pr0.8Cu1O4,17.000
Bi2Sr2Ca0.8Ce0.2Cu2O8,17.000
Y1Ba2Cu3.92Ni0.08O8,17.000
Bi2Sr1.6Sm0.4Cu1O6.3,17.000
La1.5Sm0.3Sr0.2Cu1O4,17.000
Y0.4Pr0.6Ba1.25Sr0.75Cu3O6.92,17.000
Y1Ba2Cu3O6.38,17.000
Pr1.85Ce0.15Cu1O4,17.000
Sm1.85Ce0.15Cu1O4,17.000
La2Cu1O4.062,17.000
La1.04Pr0.85Sr0.11Cu1O4,17.000
La0.92Pr0.85Sr0.23Cu1O4,17.000
La1.78Sr0.22Cu0.99Zn0.01O4,17.000
Y1Ba2Cu2.919Zn0.081O6.7,17.000
Nd1.295Gd0.555Ce0.15Cu1O4,17.000
La1.84Y0.04Sr0.12Cu1O4,17.000
Ru1Sr2Eu1Cu2O8,17.000
Ba0.445K0.555Bi1O3,17.000
La0.6Rh4P12,17.000
Y1,17.000
Si1V3,17.000
C1.55Th0.3Y0.7,17.000
Ge1Nb3,17.000
Hf0.33Nb0.67,17.000
Si0.25V0.75,17.000
Nb0.592Sn0.013Al0.332Ge0.063,17.000
Y0.7Th0.3C1.35,17.000
Nb3Al0.8Be0.2,17.000
N0.74H2.22Na1Rb2C60,17.000
Li1,17.000
Nb1C0.5N0.42,17.000
Nb3Sn0.8Ga0.2,17.000
Y1.4Th0.6C3.1,17.000
Ca1Fe2.94Co0.06As2,17.000
H4Si1,17.000
Sr4Sc2Fe2P2O6,17.000
Ba1Fe1.906Co0.094As2,17.000
La1Fe1As1F0.1O0.9,17.000
Li1Fe1As1,17.000
Fe2P2Sr4Sc2O6,17.000
Ca4Al2Fe2P2O5.8,17.000
Sm1Fe1As0.5P0.5O0.85,17.000
Ca0.64Na0.36Fe2As2,17.000
Ba1Fe1.93Ni0.07As2,17.000
Ba1Fe1.83Zn0.06Co0.11As2,17.000
K0.8Fe1.992Co0.008Se2,17.000
Ba0.8K0.2Fe2As2,17.000
Na1Fe0.95Co0.05As1,17.000
Nb0.95Mg0.05N0.92O0.08,17.000
Sm1Fe1As0.55P0.45H0.26O0.74,17.000
Ba0.797K0.203Fe2As2,17.000
Ba1Fe2S3,17.000
La1.8Eu0.2Cu0.995Ni0.005O3.5,17.000
Si1V3,16.980
Nb1C0.9N0.1,16.970
Si0.25V0.75,16.950
Si0.3V0.7,16.950
Y1Ba2Cu2.7Co0.3O6.93,16.900
La1.74Nd0.1Ba0.16Cu1O4,16.900
La1.72Nd0.2Ba0.08Cu1O4,16.900
Nb3Sn0.8Al0.2,16.900
Al0.24Nb0.76,16.900
Al0.25V0.75,16.900
Nb3Sn0.95,16.900
Si1V3,16.900
Y1Ba2Cu3.88Co0.12O8,16.900
Li1Fe1As1,16.900
Sm1Fe0.8Ru0.2As1F0.15O0.85,16.900
Ca1Fe1.926Co0.074As2,16.900
Ba1Fe1.915Ni0.085As2,16.900
Ga0.15Nb3Sb0.15Sn0.7,16.890
Si0.25V0.75,16.860
Si1V3,16.850
Al1Nb3,16.840
Si1V3,16.840
Si1V3,16.830
La1Nd0.87Ce0.13Cu1O3.975,16.800
La1.8Sr0.2Cu0.98Ni0.02O4,16.800
La1.75Sr0.25Cu1O4,16.800
Nd0.9Pr0.1Ba2Cu3O6.65,16.800
Sm1.25Gd0.6Ce0.15Cu1O3.97,16.800
Sm1.15Gd0.7Ce0.15Cu1O3.97,16.800
Ca1.88Na0.12Cu1Cl2O2,16.800
Si1V3,16.800
Ga1V3,16.800
Nb2.85Ta0.15Al1,16.800
Nb3Sn0.8Al0.2,16.800
Y1.3Th0.7C2.7,16.800
Y1.4Th0.6C3,16.800
Ca1Fe1.854Co0.146As2,16.800
Li1Fe1As1,16.800
Nb0.87Si0.09N0.13O0.13,16.800
Ba1Fe1.91Co0.09As2,16.760
Pr1.85Ce0.15Cu1O4.065,16.750
Nb0.75Sn0.125Zr0.125,16.700
Si0.25V0.75,16.700
Ge1Nb3,16.700
Lu1Ni2B2C1,16.700
Si1V3,16.700
Nb3Sn0.5Zr0.5,16.700
Y1.5Th0.5C3,16.700
Ba1Fe1.906Co0.094As2,16.700
Ba1Fe1.982Mo0.018As2,16.700
Nb0.89Al0.11N0.84O0.16,16.700
Si0.25V0.75,16.650
La1.85Sr0.15Cu0.985Zn0.015O4,16.600
Pu1Co0.9Ni0.1Ga5,16.600
Pd0.55Cu0.45H0.7,16.600
P0.2Si0.8V3,16.600
Si0.25V0.75,16.600
Nb3Sn2,16.600
V3Si0.99Be0.01,16.600
Lu1Ni2B2C1,16.600
Nb2.973Zr0.027Al1,16.600
Si1V3,16.600
La1.85Sr0.15Cu0.975Ni0.025O4,16.600
Ca1Fe0.8Co0.2As1F1,16.600
Nd1Fe0.9Rh0.1As1O1,16.600
Li1Fe1As1,16.600
Ba1Fe2As2,16.600
Ca3Al2Fe2P2O5,16.600
Ca4Al2Fe2P2O6,16.600
Nd1.85Ce0.15Cu0.998Co0.002O4,16.500
La1.8Ba0.2Cu1O4,16.500
Ba0.5K0.5Bi1O3,16.500
Nd1.85Ce0.15Cu0.995Fe0.005O4,16.500
La1.735Nd0.15Sr0.115Cu1O4,16.500
La1.75Sr0.25Cu1O4,16.500
Ca1.7Na0.3Cu1Br2O2,16.500
N0.92Nb1,16.500
Nb3Sn0.5Zr0.5,16.500
Si23.8V74.65,16.500
Nb2.919Hf0.081Al1,16.500
Nb0.75Al0.2Ge0.05,16.500
Sc1Ni2B2C1,16.500
Lu1Ni2B2C1,16.500
Nb3Sn0.65Ga0.35,16.500
Nb3Sn0.8Sb0.2,16.500
N1Nb1,16.500
La1.85Sr0.15Cu0.975Ni0.025O4,16.500
Ba1Fe1.77Co0.23As2,16.500
La1.943Sr0.076Cu1O4,16.500
Ca1Fe1.888Co0.112As2,16.500
La0.81Dy0.06Sr0.13Fe1As1O1,16.500
Nb1C1N1,16.500
Sm1Fe0.875Ir0.125As1O1,16.500
Ba0.77K0.23Fe2As2,16.500
Li0.5Ti1N1Cl1,16.500
Pr0.65Sr0.35Fe1As1O1,16.500
Ga1Nb3,16.500
La0.006Si1V2.994,16.480
V2.994La0.006Si1,16.480
Gd1Sr2Ru1Cu2O8,16.450
Ga1V1,16.450
La0.99Rh4P12,16.410
Eu2.17Ce0.5Sr1.33Cu2.5Al0.5O9.02,16.400
La1.88Sr0.12Cu1O4,16.400
Y2C2.9B0.1,16.400
Sm1.844Ce0.156Cu1O4,16.400
Nb3Si0.25Sn0.75,16.400
Nb0.5Sn0.25Ta0.25,16.400
V2.979Co0.021Si1,16.400
Nb2Ta1Sn1,16.400
Si22.5V75,16.400
Nb2Sn1Ta1,16.400
Si10.9V3C0.1,16.400
Nb0.75Al0.225Si0.025,16.400
Nb1C0.3N0.57,16.400
Nb3Sn0.5Ga0.5,16.400
Nb3Ga0.5Zn0.5,16.400
Nb3Sn0.49Ga0.51,16.400
Nb3Ga0.5Sn0.5,16.400
Nb2.7Ti0.3Sn1,16.400
Y1.4Th0.6C2.7,16.400
C0.28N0.76Nb1,16.400
Li0.5Nb1O2,16.400
Ca1Fe0.8Co0.2As1F1,16.400
Ba1Fe1.94Pd0.06As2,16.400
K0.76Fe1.61Se0.96S1.04,16.400
Ba1Fe1.772Co0.228As2,16.400
Lu1Ni2B2C1,16.350
Nb0.87Si0.09N0.87O0.13,16.350
Bi1Pb1Sr1.5La0.5Cu1O6,16.300
La1.85Sr0.15Cu0.97Ni0.03O4,16.300
Y0.65Pr0.35Ba2Cu3O6.85,16.300
Nb3Sn0.5Al0.5,16.300
Y1Ni2Pd1,16.300
Ga0.3Nb0.7,16.300
Nb1C0.2N0.64,16.300
Nb3Ga0.65Zn0.35,16.300
Nb3Ga0.65Sn0.35,16.300
Y1.4Th0.6C2.8,16.300
Y1.4Th0.6C2.9,16.300
Pr0.75Sr0.25Fe1As1O1,16.300
Li1Fe1As1,16.300
Sr1Fe1.75Pt0.25As2,16.300
Ba1Fe1.988Mo0.012As2,16.300
K0.5Ti1N1Cl1,16.300
Na0.5Ti1N1Cl1,16.300
Rb0.5Ti1N1Cl1,16.300
Rb0.22Ti1N1Br1,16.300
K0.46Ti1N1Br1,16.300
La1Fe0.999Mn0.001As1F0.11O0.89,16.300
Mn0.03Si1V2.97,16.250
V2.97Mn0.03Si1,16.250
Pr1.85Ce0.15Cu1O4.175,16.250
La1.75Sr0.25Cu1O4,16.200
Y1Ba1.8La0.2Cu3.97Zn0.03O8,16.200
Pr0.82La1Ce0.18Cu1O4,16.200
In0.2Si0.8V3,16.200
Si21.75V69.43,16.200
Nb80Ga19.4Fe0.06,16.200
Lu1Ni2B2C1,16.200
Nb3Ga0.8Zn0.2,16.200
Nb3Ga0.8Sn0.2,16.200
Lu0.98La0.02Ni2B2C1,16.200
Nb3Sn0.9,16.200
Pr0.75Sr0.25Fe1As1O1,16.200
Sr0.54Eu0.46Fe1.78Co0.22As2,16.200
Nb0.9Mg0.1N0.87O0.13,16.200
Ca0.85La0.15Fe1As2,16.200
Li1Fe1As1,16.200
Ca0.74La26Fe0.935Co0.065As2,16.200
Y1Ni2B2C1,16.180
V3Si0.98Al0.02,16.120
Nd1.84Ce0.16Cu1O3.96,16.100
La1.76Sr0.24Cu0.97Ru0.03O4,16.100
Al0.1Si0.9V3,16.100
Nb3Sn0.1Al0.9,16.100
N1Nb1,16.100
N12.8Nb1,16.100
Lu1Ni2B2C1,16.100
Mg0.6Al0.2Li0.2B2,16.100
Nb3Sn0.65Ge0.35,16.100
Nb3Sn0.5Al0.5,16.100
Ga1Nb3,16.100
Nb3Ga0.9Zn0.1,16.100
Nb3Ga0.9Sn0.1,16.100
Nb0.75Ti0.25N0.94,16.100
La1Fe0.95Co0.05As1F0.11O0.89,16.100
In0.15Nb3Sb0.15Sn0.7,16.090
Ca0.8La0.2Fe0.98Co0.02As2,16.080
Nb3Sb0.15Sn0.7Tl0.15,16.040
Y1Ni2B2C1,16.010
Sr0.2La1.8Cu0.95Co0.05O4,16.000
Ba0.6K0.4Bi1O3,16.000
Bi2Sr2Sm1.64Ce0.36Cu2O10.24,16.000
Tl2Ba2Cu1O6.08,16.000
Nd0.95La0.9Th0.15Cu1O4,16.000
Nd0.85La1Th0.15Cu1O4,16.000
La1.85Sr0.15Cu0.985Co0.015O4,16.000
Y1Sr2Cu2.8V0.2O6.5,16.000
Y1Sr1.55Ba0.45Cu2.5B0.5O7,16.000
La1Nd0.86Ce0.14Cu1O3.978,16.000
Sr1.7K0.3Cu1C1O5,16.000
Tl1Ba1Sr1Ca1Cu2O7,16.000
Gd1Ba1.5Sr0.5Cu3O6.63,16.000
Sr1.2Ba0.8Y1Cu2.8Al0.2O7.19,16.000
Pr1.87Ce0.13Cu1O3.99,16.000
La1.7Nd0.15Ca0.056Ba0.094Cu1O4,16.000
Pr1.831Y0.018Ce0.15Cu1O4,16.000
Nd1.665Y0.185Ce0.15Cu1O4,16.000
Ru1Sr2Gd1Cu2O8,16.000
La1.83Nd0.1Ba0.07Cu1O4,16.000
Tl1Ba0.4Ca0.6La1Cu1O5,16.000
Nd1.85Ce0.15Cu0.997Ni0.003O4,16.000
La1.83Sr0.17Cu0.98Co0.02O4,16.000
La1.5Ba1.4Ca0.1Cu3O6.912,16.000
La1.5Ba1.3Ca0.2Cu3O6.897,16.000
La1.5Ba1.3Ca0.2Cu3O7.002,16.000
La1.75Sr0.25Cu1O4,16.000
La1.76Sr0.24Cu1O4,16.000
Y1Ba2Cu3.96Zn0.04O8,16.000
La1.92Ca0.08Cu1O4,16.000
La1.985Sr0.015Cu1O4.024,16.000
Bi2Sr2Cu1O6.13,16.000
Ru0.9Sn0.1Sr2Eu1Cu2O8,16.000
N1Nb1,16.000
V2.97Mo0.03Si1,16.000
Nb3Sn0.6Ga0.4,16.000
Nb0.517Sn0.013Al0.450Ge0.021,16.000
Lu1Ni2B2C1,16.000
Nb2.917Ti0.083Al1,16.000
Nb2.895W0.105Al1,16.000
Sc1Ni2B2C1,16.000