formula,Tc,type
As0.65Co0.21Fe0.93Pr0.75,15.0,original
As0.65Fe0.89Nd4.84,15.0,original
Fe1.02Se0.23Te1.13,15.0,original
As1.47Ba0.1Fe2.2K2.59Mn1.09,15.0,original
Cl8.18Li0.27N5.82Zr3.7,15.0,original
As1.47Co0.82Fe2.03K2.65,15.0,original
Al1.5As1.47Ca6.02Fe2.3O1.87Ti6.36,15.0,original
Fe1.02O0.2P1.78Sc4.95Sr3.22,15.0,original
B1.62Lu3.29Ni4.79,15.0,original
Fe1.02Se0.19Te1.3,15.0,original
As0.65Fe1.02Pr0.59,15.0,original
As0.65Co0.32Fe0.89Sm6.8,15.0,original
As1.47Ba0.64Fe1.59Ru1.41,15.0,original
Fe1.02Se0.14Te1.5,15.0,original
Ca2.14Cl16.44Cu0.13Na0.44,15.0,original
As0.65Fe1.02Li7.24,15.0,original
As1.47Ba0.44Fe2.3K0.91,15.0,original
N5.35Nb1.04,15.0,original
As0.28Ce5.81F0.15Fe1.02P0.75,15.0,original
Cl8.18N5.82Zr3.7,15.0,original
Cl8.18Mg0.41N5.82Zr3.7,15.0,original
As1.47Ba0.43Fe2.3K0.93,15.0,original
As0.65F0.46Fe1.02La1.11,15.0,original
Cu0.13Eu1.27La2.26O0.34,15.0,original
Ba1.72Cu1.39O1.17Pr0.28Y1.09,15.0,original
Cu0.13La2Nd0.84O0.48,15.0,original
Ga0.24V0.53,15.0,original
N5.75Nb1.1,15.0,original
Ga0.17Nb0.85,15.0,original
B1.62Lu1.59Ni4.79Y0.85,15.0,original
B1.62Lu0.74Ni4.79Y1.44,15.0,original
Ga0.18V0.58,15.0,original
La0.83P22.25Rh7.17,15.0,original
As0.65Fe1.02Tb13.87,15.0,original
As14.67Ca12.24Fe11.61Pt8.9,15.0,original
B1.62La3.98N17.65Ni4.79,15.0,original
Ba0.64Cu1.39Dy10.45O1.2Sr1.46,15.0,original
Bi1.47K2.92O0.19,15.0,original
Cu0.12La2.25O0.48,15.0,original
Mo1.1N5.82,15.0,original
B1.62La0.4Lu1.59Ni4.79,15.0,original
Al0.98Nb3.54Zr0.13,15.0,original
Mo7.34Pb3.06S8.78,15.0,original
B1.62Ni4.79Sc3.95Y0.13,15.0,original
B1.62Lu0.44Ni4.79Y1.66,15.0,original
C0.43WY3.96,15.0,original
Fe1.02Se0.17Te1.38,15.0,original
As1.47Ca1.05Co0.44Fe2.14,15.0,original
As1.47Ba0.64Fe2.22,15.0,original
As1.47Ba0.64Fe2.16,15.0,original
Fe1.02Se0.18Te1.33,15.0,original
Fe1.02Se0.11Te1.63,15.0,original
As14.67Ca11.89Fe12.54Pt7.15Tm2.12,15.0,original
As1.47Ba0.45Fe2.3,15.0,original
P0.47Si0.15V2.32,15.0,original
N5.11Nb0.16Ti3.08,15.0,original
Ce1.01Cu0.13O0.48Sm12.34,15.0,original
Ba0.21Bi1.14K2.05O0.2Pb0.53,15.0,original
C10.41N5.82Na3.91,15.0,original
Cu0.13La2.39O0.48,15.0,original
Ba1.72Cu1.97O1.59Y2.04,15.0,original
Mo1.1,15.0,original
N5.23Nb1.1,15.0,original
Mo0.35Tc7.38,15.0,original
Ga1.07V2.32,15.0,original
B1.62Ni4.67Y2.04,15.0,original
C10.41N5.82Na11.84,15.0,original
C10.41N2.86Na13.82,15.0,original
C0.36Th1.37Y3.48,15.0,original
As0.65Fe0.83Nd4.84Rh0.15,15.0,original
As0.57Co0.32Fe0.89P0.1Pr0.75,15.0,original
B1.62Lu2.61Ni4.79Y0.13,15.0,original
Ba0.32Bi0.97K1.5O0.2Pb0.86,15.0,original
Ga0.22V0.55,15.0,original
Ga0.64Nb3.63Sn0.25,15.0,original
Al0.77Nb3.63,15.0,original
Al0.13Nb3.63Sn0.61,15.0,original
Al0.98Nb3.52Zr0.19,15.0,original
Al0.19Nb0.76,15.0,original
Al0.35B1.62Mg1.86,15.0,original
C0.33Th5.03Y1.09,15.0,original
C0.4Th5.03Y1.09,15.0,original
Ga0.16V0.59,15.0,original
As1.47Ba0.64Co0.29Fe2.18,15.0,original
As0.65F0.31Fe1.02Pr0.75,15.0,original
As1.47Ba0.64Co0.85Fe2.03,15.0,original
Si0.25Ti0.51V2.2,15.0,original
Mo6.22Pb3.13S4.3,15.0,original
Ce0.71Cu0.13O0.48Pr1.34,15.0,original
Cu0.13La2.4O0.48,15.0,original
Ce0.71Cu0.13Gd3.24O0.48Pr1.12,15.0,original
Ce0.71Cu0.13Nd9.09O0.48,15.0,original
C0.16W0.46Y1.8,15.0,original
Ga1.1Nb3.63,15.0,original
Ga1.1V2.32,15.0,original
V0.57,15.0,original
Al0.98Nb3.18Ta1.81,15.0,original
Cl8.18N5.82Na2.56Zr3.7,15.0,original
B1.62Ni4.79Sc3.45Y0.37,15.0,original
C0.4WY3.96,15.0,original
C0.43Ti0.72Y3.96,15.0,original
B1.62Pd3.98Th3.56,15.0,original
Ga0.24V0.54,15.0,original
As1.47Ba0.64Co0.27Fe2.19,15.0,original
As0.65F0.46Fe0.38Nd4.84Ru1.25,15.0,original
As1.47Ba0.64Fe1.43Ru1.75,15.0,original
As0.65Fe2.3P1.78Sr1.46,15.0,original
As0.65F0.15Fe1.02La1.11,15.0,original
As1.47Ba0.64Fe2.11Ni0.18,15.0,original
As1.47Fe2.3K4.23,15.0,original
Mo3.59S4.3Sn0.42,15.0,original
B1.62Ni4.79Tb0.66Y1.92,15.0,original
Cu0.12La2.3O0.48,15.0,original
Cu0.13La0.76O0.48Sr0.14,15.0,original
Ba1.24Cu1.39La1.47O1.31,15.0,original
Ba1.02Ca0.3Cu1.39La1.47O1.29,15.0,original
Li7.24O0.48Ti8.13,15.0,original
Ba0.21Bi1.4K2.05O0.2,15.0,original
Si0.22V2.32,15.0,original
Mo6.22Pb3.13S6.54,15.0,original
Al0.24Nb0.61,15.0,original
N4.78Nb1.1,15.0,original
Al0.98Hf1.4Nb3.44,15.0,original
Cl8.18Li7.24N5.82Zr3.7,15.0,original
Br2.73Cl6.12Li7.24N5.82Zr3.7,15.0,original
Cl8.18K3.14N5.82Zr3.7,15.0,original
Nb3.63Sb0.53Sn0.34,15.0,original
C0.36Th5.03Y1.09,15.0,original
N6.23Nb1.1,15.0,original
Ba1.72Cu1.39O1.3Pr0.4Y0.73,15.0,original
As1.47Co0.93Fe2Sr1.46,15.0,original
FeMn0.24Se0.23Te1.13,15.0,original
Fe1.02Se0.17Te0.88,15.0,original
V0.56,15.0,original
As1.47Eu6.81Fe2.12Rh0.13,15.0,original
Bi3.16Cu0.13La0.25O1.11Sr2.52,15.0,original
Ce0.71Cu0.13Gd4.42Nd6.59O0.48,15.0,original
Ba0.64Ca0.18Cu1.39La1.11Nd3.34O1.38,15.0,original
Gd1.7Mo7.34Pb3.13S8.78,15.0,original
Nb3.63Sn0.61,15.0,original
B1.62Ni4.75Y2.04,15.0,original
B1.62Ni4.74Y2.04,15.0,original
Br5.23Cl4.26Li7.24N5.82Zr3.7,15.0,original
Cl8.18N5.82Na2.92Zr3.7,15.0,original
Eu1.97Gd1.7Mo7.34Pb2.16S8.78,15.0,original
Fe1.06Se0.23Te1.13,15.0,original
As0.65F0.83Fe1.02La1.11,15.0,original
Ba1.72Cu1.26O1.3Y2.04Zn0.4,15.0,original
Ce0.71Cu0.13Gd2.7O0.48Sm10.54,15.0,original
Bi3.16Cu0.13Nd3.34O1.15Sr1.99,15.0,original
Cu0.13La2.2O0.48Sr0.12,15.0,original
Al0.45Mo6.09S6.54Sn0.78,15.0,original
Hf0.41Mo1.03,15.0,original
C0.14La0.4Th1.74,15.0,original
Nb0.63Sn0.11,15.0,original
Nb3Sn0.78V0.34,15.0,original
I10.24Li7.24N5.82Zr3.7,15.0,original
Cl8.18Li1.15N5.82Zr3.7,15.0,original
C0.4Ti0.72Y3.96,15.0,original
Mo7.34S8.78Sn0.78,15.0,original
As1.47Ba0.64Co0.21Fe2.2,15.0,original
As0.61Co0.32Fe0.89Pr0.75,15.0,original
As1.47Ba0.64Fe1.76Ru1.02,15.0,original
Ca1.06Cu0.76La2.3O1.06,15.0,original
Cu0.12La2.27O0.48,15.0,original
Cu0.12La2.16O0.48Sr0.17,15.0,original
Al0.98Cr0.13Nb3.25,15.0,original
Al0.34Nb3.63Sn0.43,15.0,original
Br8.23Cl2.03Li7.24N5.82Zr3.7,15.0,original
Br11.06Li7.24N5.82Zr3.7,15.0,original
Nb2.11Sn0.78Ta6.31,15.0,original
Ga0.29V0.5,15.0,original
As1.47Ba0.64Co0.86Fe2.02,15.0,original
B1.62Ni4.79Y1.92,15.0,original
As0.65Fe1.02La1.11,15.0,original
Fe1.07Se0.13Te1.55,15.0,original
Fe1.09Te2,15.0,original
As1.47Ca1.05CoFe1.98,15.0,original
As0.65F0.46FeLa0.83Mn0.24Y0.13,15.0,original
Si3.57V2.32,15.0,original
Mo7.34S8.78Sn0.67,15.0,original
Bi3.16Ce1.97Cu0.76Nd8.04O2.21Sr3.22,14.0,original
Bi1.47Cu0.13O1.03Pb3.13Pr0.21Sr0.22,14.0,original
Cu0.13La2.2O0.48,14.0,original
Cu0.12La2.23O0.48,14.0,original
Ba0.64Cu1.39O1.3Pr0.52Sr1.46Y0.37,14.0,original
Al0.98Ca1.55Cu1.39O1.9Sr3.22Y1.09,14.0,original
Cu1.27O1.31Pr0.55Re0.24Sr3.22Y0.25,14.0,original
Ba1.72Cu1.39Nd4.84O1.2,14.0,original
Ba0.64Ca1.05Cu1.32La1.11O1.31Zn0.21,14.0,original
Ba0.64Ca1.05Cu1.39La0.25O1.31Pr0.28,14.0,original
Ba0.64Co0.68Cu1.28La1.11O1.31,14.0,original
Ce0.71Cu0.13O0.48Sm12.05,14.0,original
Ba0.21Ca0.3Cu0.13La1.11O0.75Tl4.41,14.0,original
Ba1.72Cu1.27Eu6.81Ga0.18O1.21,14.0,original
Ce0.71Cu0.13Nd9.09O0.48,14.0,original
Cu0.13H0.29La2.39O0.48,14.0,original
Cu0.13La2.46O0.48,14.0,original
Cu0.13La2.4O0.48,14.0,original
Ba1.18Cu1.39La0.61O1.28Pr0.21Sr0.58,14.0,original
Bi3.16Cu0.13O1.07Sr3.22,14.0,original
Bi1.47K2.89O0.2,14.0,original
Cu0.76Eu6.81O1.59Ru2.65Sr3.18,14.0,original
Cl5.71N5.82Zr3.7,14.0,original
Mo7.34Pb3.13S7.66,14.0,original
Mo0.56Re0.59,14.0,original
Mo0.41Tc6.76,14.0,original
Mo0.47Tc6.15,14.0,original
Mo7.34Pb2.87S8.22,14.0,original
Si0.25V2.29,14.0,original
Si0.22V2.32,14.0,original
Al0.14Si0.18V2.32,14.0,original
Nb1.1,14.0,original
B1.62Ni4.29Pd0.31Y2.04,14.0,original
B1.62Co0.14Lu3.29Ni4.72,14.0,original
Al0.98Nb3.06V0.3,14.0,original
Al0.66Be0.23Nb3.63,14.0,original
C10.41Cs10.49Na7.87,14.0,original
Ca1.05Si0.58,14.0,original
B1.62Ni4.79Y1.92,14.0,original
B1.62Gd0.34Ni4.79Y1.92,14.0,original
Li7.24,14.0,original
S0.95,14.0,original
V0.52,14.0,original
Mo7.34S8.78Sn0.78,14.0,original
I20.53Mo7.34S6.54,14.0,original
As0.65Co0.36Fe0.88La1.11,14.0,original
Cu0.13La2.43O0.48,14.0,original
Fe1.02Se0.13Te1.55,14.0,original
Fe1.02Se0.23Te1.13,14.0,original
Cl8.18Li0.63N5.82Zr3.7,14.0,original
As0.65F0.33Fe1.02Sm6.8,14.0,original
Fe1.02Se0.17Te1.4,14.0,original
Fe1.1Se0.23Te1.13,14.0,original
Fe1.02Te1.75,14.0,original
Fe1.16Se0.17Te1.38,14.0,original
As0.65Co0.18Fe0.93Na3.91,14.0,original
As0.65Fe0.89La1.11,14.0,original
As0.65Fe0.83La1.11Rh0.15,14.0,original
As1.47Ba0.43Co1.06Fe1.97K0.93,14.0,original
As0.65Fe1.02Pr0.59,14.0,original
As1.47Ba0.64Fe2.2,14.0,original
As0.65Fe1.04Li7.17,14.0,original
As1.47Ca0.8Fe2.3Na0.74,14.0,original
Fe1.07Se0.17Te1.38,14.0,original
Fe1.02Se0.17Te1.38,14.0,original
Cl8.18N5.82Na0.58Ti4.19,14.0,original
Fe1.06Se0.17Te1.38,14.0,original
As1.47Ba0.44Fe2.3K0.91,14.0,original
As1.47Ca0.86Fe1.02Nd0.59,14.0,original
Br11.06N5.82Zr3.7,14.0,original
Cu0.13Eu1.27La2.26O0.34,14.0,original
Ba1.8Ca2.38Cu1.46Hg5.41O1.65,136.0,original
Ba1.8Ca2.38Cu1.46Hg5.41O1.64,136.0,original
Ba1.72Ca2.29Cu1.39Hg7.24O1.67,135.0,original
Ba1.8Ca2.38Cu1.46Hg5.41O1.63,135.0,original
Ba1.8Ca2.38Cu1.46Hg5.41O1.64,135.0,original
Ba1.72Ca2.29Cu1.39Hg5.77O1.7,134.0,original
Ba1.72Ca2.29Cu1.39Hg4.3O1.7Ti1.59,134.0,original
Ba1.72Ca2.29Cu1.39Hg7.24O1.59,134.0,original
Ba1.72Ca2.29Cu1.39Hg7.24O1.68,134.0,original
Ba1.72Ca2.29Cu1.39Hg7.24O1.69,134.0,original
Ba1.8Ca2.38Cu1.46Hg5.41O1.65,134.0,original
Ba1.72Ca2.29Cu1.39Hg7.24O1.59,133.0,original
Ba1.72Ca2.29Cu1.39Hg7.24O1.71,133.0,original
Ba1.72Ca2.29Cu1.39Hg7.24O1.68,133.0,original
Ba1.8Ca2.38Cu1.46Hg5.41O1.63,133.0,original
Ba1.72Ca2.29Cu1.39Hg6.14O1.59Re0.17,133.0,original
Ba1.72Ca2.29Cu1.39Hg7.24O1.59,132.0,original
Ba1.72Ca2.29Cu1.39Hg5.77O1.59Pb0.53,132.0,original
Ba1.72Ca2.29Cu1.39Hg7.24O1.66,132.0,original
Cr0.48Cu0.13,132.0,original
Ba1.36Ca2.29Cu1.39Hg6.14O1.59Re0.17Sr0.29,132.0,original
Ba1.29Ca2.29Cu1.39Hg6.14O1.59Re0.17Sr0.4,131.0,original
Ba1.72Bi0.12Ca2.29Cu1.39Hg5.77O1.65,130.0,original
Ba1.72Ca2.29Cu1.39Hg5.04O1.69Pb0.86,130.0,original
Ba1.72Ca2.29Cu1.39Hg6.51O1.59Pb0.21,130.0,original
Cu0.13La2.29O0.48,14.0,original
Cu0.13La1.69Nd1.84O0.48,14.0,original
Cu0.13La2.38O0.48,14.0,original
Ba3.88Cu3.91O3.32Y4.44,14.0,original
Ce0.29Cu0.13La2.43O0.48,14.0,original
Cu0.13Ho0.36La2.33O0.48,14.0,original
Ga0.99V2.32,14.0,original
Al0.24Ga0.76V2.32,14.0,original
In1.68V2.32,14.0,original
Nb3.63Sn0.54,14.0,original
Al0.31Nb0.55,14.0,original
Ga0.24V0.53,14.0,original
Mo1.03,14.0,original
Mo0.97,14.0,original
C0.41Y4.44,14.0,original
As1.47Ba0.64Fe2.16,14.0,original
As0.55Ba0.64Fe2.3P2,14.0,original
As0.65F0.67Fe0.64Ru0.69Sm6.8,14.0,original
As1.47Fe2.3K4.23,14.0,original
As1.47Co1.16Eu4.04Fe1.94Sr0.4,14.0,original
As1.47Co0.81Fe2.04Sr1.46,14.0,original
Fe1.06Te1.68,14.0,original
As0.65Fe1.01Na3.91,14.0,original
As0.48Fe1.02La0.97P1.4,14.0,original
Ga1.1V2.32,14.0,original
Cu0.13H0.91La2.39O0.48,14.0,original
Cu0.12La2.33O0.48,14.0,original
Ce0.2Cu0.13La2.46O0.48,14.0,original
C0.14Y1.8,14.0,original
N5.41Nb0.91Zr0.42,14.0,original
B1.62Ni4.79Y2.04,14.0,original
B1.62Ni4.54Y2.04,14.0,original
B1.62Ho2.68Ni4.79Y1.44,14.0,original
Al0.98Mo0.13Nb3.35,14.0,original
Ga0.23V0.54,14.0,original
N5.23Nb1.05,14.0,original
C0.4Y3.96,14.0,original
Br22.17Mo7.34S6.54,14.0,original
Fe1.02Se0.13Te1.11,14.0,original
As0.65Co0.32Fe0.89Pr0.75,14.0,original
As1.47Ba0.64Fe2.11Ni0.18,14.0,original
B1.62Ce0.11Ni4.79Y1.92,14.0,original
As0.65Fe0.99Li7.24,14.0,original
P1.78Ru2.65Zr3.7,14.0,original
Cu0.13La2.33O0.48,14.0,original
Bi2.82Cu0.13La0.25O1.08Pb0.53Sr2.52,14.0,original
Cu0.13La2.19O0.48,14.0,original
Cu0.12La2.26O0.48,14.0,original
Mo7.34Pb3.13S8.78,14.0,original
Ga0.22Nb0.78,14.0,original
B1.62Ni4.54Pt0.1Y2.04,14.0,original
Hf0.7N5.41Nb,14.0,original
N5.82Nb0.91Zr0.42,14.0,original
Tc10.1,14.0,original
Nb0.85W,14.0,original
Mo0.97Ru0.13,14.0,original
Fe1.02Te1.31,14.0,original
Fe1.18Se0.11Te1.63,14.0,original
As14.67Ca12.24Fe11.51Pt11.53,14.0,original
As0.65F0.46Fe0.38Nd4.84Ru1.25,14.0,original
As0.65Fe1.02O0.2Sr2.87V0.73,14.0,original
Fe1.02Se0.11Te1.63,14.0,original
As1.47Ba0.64Fe2.21,14.0,original
Mo7.34Pb2.81S8.78,14.0,original
Mo7.34S8.78Sn0.67W1.26,14.0,original
Ce0.71Cu0.13Gd2.79O0.48Pr1.16,14.0,original
Cu0.13La1.76Nd1.84O0.48,14.0,original
Au1.16H3.22Pd1.61,14.0,original
Ga0.25V0.52,14.0,original
B1.62Mg3.17,14.0,original
Ga0.87V2.32,14.0,original
Al0.56Nb3.63Sn0.25,14.0,original
Al0.98Nb3.45Zr0.39,14.0,original
Ga0.17Nb0.85,14.0,original
B1.62Lu3.05Ni4.79,14.0,original
B1.62Lu3.02Ni4.79,14.0,original
Eu1.97Mo7.78Pb2.16S8.78,14.0,original
Ga0.19V0.57,14.0,original
As1.47Fe2.3K0.96Sr1.11,14.0,original
Fe1.05Te1.88,14.0,original
As14.67Ca12.24Fe11.75Pt8.65,14.0,original
As0.65F0.46Fe0.38La1.11Ru1.25,14.0,original
Te1.88,14.0,original
Fe1.05Se0.23Te1.13,14.0,original
Li7.24O0.48Ti8.52,14.0,original
As1.47Ba0.1Co1.23Fe1.92K2.59,14.0,original
La2.3Ni0.68O0.48,14.0,original
Ba1.72Cu1.39O1.3Pr0.38Y0.77,14.0,original
Ba1.72Cu1.39O1.14Y2.04,14.0,original
Ce0.71Cu0.13Gd4.92O0.48Pr0.98,14.0,original
Ce0.71Cu0.13O0.48Sm12.69,14.0,original
Cu0.13H1.39La2.39O0.48,14.0,original
Ce0.71Cu0.13Nd8.16O0.48Tb2.53,14.0,original
Ba1.72Cu1.39O1.15Y2.04,14.0,original
Cu0.13La2.37O0.48,14.0,original
Cu0.12La2.28O0.48,14.0,original
C0.41La2.55,14.0,original
Co3.96Ga5.72Pu33.39,14.0,original
Al0.27Nb0.68,14.0,original
N4.87Nb1.1,14.0,original
Ga1.1V2.17,14.0,original
B1.44Mg3.17,14.0,original
Cl8.18K4.07N5.82Zr3.7,14.0,original
V0.54,14.0,original
Cu0.13Gd8.13La0.96O0.48,14.0,original
Mo1.1N5.82,14.0,original
As1.47Fe1.66Ru1.25Sr1.46,14.0,original
As1.47Fe1.41Ru1.81Sr1.46,14.0,original
Fe1.02Se0.16Te1.43,14.0,original
As1.47Co0.96Fe1.99Sr1.46,14.0,original
As0.65Fe1.02Nd3.84,14.0,original
As1.47Ba0.64Co0.86Fe2.02,14.0,original
Fe1.06Te1.88,14.0,original
As1.47Ba0.64Co0.55Fe2.09Mn0.21,14.0,original
Fe0.96Se0.11Te1.63,14.0,original
As0.65Ce5.81Co0.86Fe0.74H3.58,14.0,original
As14.67Ca0.95Fe10.74Pd8.47,14.0,original
B1.62Ni4.79Tb1.35Y1.8,14.0,original
As1.14Ba0.64Fe2.3P0.66,14.0,original
Mo0.21Nb0.73,14.0,original
As1.47Ba0.64Co0.27Fe2.14,14.0,original
Mo6.09S6.54Sn0.78,14.0,original
Tc11.09,14.0,original
Si0.25V2.27,14.0,original
Ga1.1Ti0.92V2.13,14.0,original
Al0.98Nb3.44,14.0,original
B1.62Ni4.74Y2.04,14.0,original
Cl8.18Li6.87N5.82Zr3.7,14.0,original
As1.47Co0.7Fe2.07Sr1.46,14.0,original
Fe1.02Se0.54,14.0,original
As0.65Co0.14Fe0.94Na3.91,14.0,original
Ce0.83Cu0.13O0.48Pr1.39,14.0,original
As1.47Ba0.48Ce0.71Fe2.3,14.0,original
As0.65Fe1.01Li7.24,14.0,original
Ga0.14V0.56,14.0,original
Cu0.13La2.35O0.48,14.0,original
Ga0.53Mo6.09S6.54Sn0.78,14.0,original
Si0.21V2.32,14.0,original
Nb0.79,14.0,original
Al0.14Nb0.69,14.0,original
Ga0.17Nb0.86,14.0,original
B1.62Ho3.24Lu2.27Ni4.79,14.0,original
Ga0.22V0.55,14.0,original
N5.41Nb1.1,14.0,original
Fe1.02Se0.39Te0.5,14.0,original
As1.47CoFe1.98Sr1.46,14.0,original
As1.47Co0.96Eu0.18Fe1.99Sr1.38,14.0,original
As1.47Ba0.64Fe2.17Pd0.11,14.0,original
As14.67Ca11.71Fe12.54La0.3Pt7.15,14.0,original
Fe1.01Se0.11Te1.63,14.0,original
As0.65Ca1.05Co0.86Fe0.74H3.58,14.0,original
Fe1.02Se0.2Te1.23,14.0,original
As1.47Ba0.64Fe2.03Rh0.27,14.0,original
B1.62Gd0.39Lu3.1Ni4.79,14.0,original
Cu0.13H1.94La0.96O0.48,14.0,original
Mo7.78Pb2.48S8.78,14.0,original
Mo6.22Pb2.81S6.54,14.0,original
Si0.25V2.08Zr,14.0,original
Ga1.07,14.0,original
B1.62La3.98N17.65Ni4.79,14.0,original
N5.64Nb0.28Ti2.67,14.0,original
Nb0.72W1.53,14.0,original
As1.47Co1.23Fe1.92Sr1.46,14.0,original
Fe1.02Se0.18Te0.9,14.0,original
As1.47Co0.99Fe1.98Sr1.46,14.0,original
Ga1.05V2.32,14.0,original
Ga0.87Nb3.63,14.0,original
Ga0.16Nb0.85,14.0,original
Ga0.21Nb0.78,14.0,original
Mo0.47Nb0.47,14.0,original
Mo0.78Nb0.15,14.0,original
Nb0.78W1.26,14.0,original
Mo0.97Ti0.29,14.0,original
Fe1.02Te1.52,14.0,original
Fe1.02Se0.17Te1.33,14.0,original
As1.47Ca0.82Ce0.89Fe1.02,14.0,original
Pd1.94Se1.15,14.0,original
Ga0.21V0.53,14.0,original
Mo3.59S4.3Sn0.42,14.0,original
As0.65Fe0.96La1.11,14.0,original
Ba3.02Cu3.28La3.69O3.29,13.0,original
Ca1.04Cu0.76La2.33O1.01,13.0,original
C10.41K16.22,13.0,original
Co1.23Cu1.2O1.17Sr3.22Y2.04,13.0,original
Cu0.13K1.23O0.75Sr2.78,13.0,original
Ba0.97Ca0.3Cu1.39Nd6.34O1.29,13.0,original
Bi3.08Cu0.13F4.07La0.25O0.87Sr2.6,13.0,original
Ce0.83Cu0.13O0.47Pr1.39,13.0,original
Ba1.29Cu1.39O1.04Sr0.4Yb7.91,13.0,original
Ce0.71Cu0.13O0.48Pr1.27,13.0,original
Cu0.13La2.34O0.48,13.0,original
Cu0.13La2.25Nd0.35O0.48,13.0,original
Bi1.47O0.2Rb2.8Sr0.58,13.0,original
Cu0.76Gd8.77O1.59Ru2.65Sr3.22,13.0,original
Cu0.13La2.21O0.48Sr0.11,13.0,original
Ca0.8Cu0.13La1.11O0.75Tl4.41,13.0,original
Ce0.71Cu0.13Nd9.09O0.48,13.0,original
Ce0.71Cu0.12Nd9.09O0.48,13.0,original
Ba1.72Cu1.24O1.31Y2.04Zn0.46,13.0,original
Ba1.72Cu1.27Dy10.45O1.3Zn0.38,13.0,original
Cu0.13La2.18O0.48Sr0.15,13.0,original
Cu0.13La2.2O0.48Sr0.12,13.0,original
Cu0.13F0.93Nd9.83O0.48,13.0,original
Ce0.71Cu0.13Gd8.27Nd4.47O0.48,13.0,original
Ce0.71Cu0.13Gd1.57O0.48Sm11.41,13.0,original
Cu0.13N0.49O0.85Sr3.22,13.0,original
Ce0.83Cu0.13O0.48Pr1.39,13.0,original
Cu0.13Gd8.95O1.59Ru2.56Sr3.22,13.0,original
Ca2.17Cl16.44Cu0.13Na0.34,13.0,original
Mo0.55,13.0,original
Au5.34Nb3.63Pt0.59,13.0,original
C0.14Y1.8Zn0.17,13.0,original
Mo7.34S7.66Sn0.78,13.0,original
Co1.86Mo0.55,13.0,original
Mo1.1,13.0,original
Nb0.79,13.0,original
Al0.1Nb0.71,13.0,original
P1.78Ru2.65Zr3.7,13.0,original
Cl8.18N5.82Zr3.7,13.0,original
B1.62Ni4.42Y2.04,13.0,original
Br22.17Mo7.34S6.54,13.0,original
I20.53Mo7.34S6.54,13.0,original
Al0.98Nb3.35Ti0.82,13.0,original
C10.41H9.14K10.77N4.87Na3.91,13.0,original
B1.62Gd0.34Ni4.79Y1.92,13.0,original
C0.4Y3.96Zr0.62,13.0,original
Nb0.66W1.79,13.0,original
Li2.1S2.07Ti4.62,13.0,original
Ca1.05Li14.58,13.0,original
As1.47Fe2.3K0.96Sr1.11,13.0,original
Fe1.02Se0.23Te1.13,13.0,original
Fe1.04Se0.11Te1.63,13.0,original
As1.47Ba0.64Fe2.3,13.0,original
Fe1.06Se0.11Te1.63,13.0,original
As0.65Fe0.99Li7.24,13.0,original
As14.67Ca12.24Fe11.51Pt9.1,13.0,original
As1.41Ca1.05Fe2.3,13.0,original
As0.65Fe1.02Na3.91,13.0,original
As14.67Ca12.24Fe11.19Pt9.7,13.0,original
As0.65Fe0.98Pr0.59,13.0,original
As0.65Fe1.01Na3.91,13.0,original
Fe1.01Se0.11Te1.63,13.0,original
Fe1.05Se0.17Te1.13,13.0,original
Cl8.18K0.31N5.82Zr3.7,13.0,original
Fe1.02Te1.88,13.0,original
As1.47Ba0.44Fe2.3K0.89,13.0,original
Mo0.6Re0.54,13.0,original
As14.67Ca12.24Fe10.87Pt10.31,13.0,original
Ba1.72Ca2.29Cu1.39Hg5.77O1.7,129.0,original
Ba1.12Ca2.29Cu1.39Hg6.14O1.59Re0.17Sr0.68,129.0,original
Ba1.72Ca1.05Cu0.76Hg5.77O1.12V0.1,128.0,original
Ba1.72Ca2.29Cu1.39Hg4.3O1.7Ti1.59,128.0,original
Ba1.72Ca2.29Cu1.39Hg5.77Nd0.84O1.68,128.0,original
Ba1.72Ca1.05Cu0.76Hg7.24O1.09,127.0,original
Ba1.72Ca1.05Cu0.76Hg5.77O1.15,127.0,original
Ba1.72Ca1.05Cu0.76Hg5.77O1.09Ti0.72,127.0,original
Ba1.72Ca2.29Cu1.39Hg5.77O1.68V0.1,127.0,original
Ba1.72Ca1.05Cu0.76Hg7.24O1.1,126.0,original
Ba1.72Ca1.05Cu0.76Hg5.77O1.12V0.1,125.0,original
Ba1.72Ca2.29Cu1.39Hg5.77O1.68Pb0.53,125.0,original
Ba1.72Ca2.29Cu1.39O2.15Tl8.96,125.0,original
Ba1.72Ca1.05Cu0.76Hg7.24O1.03,125.0,original
Ba0.64Ca3.54Cu1.39O1.87Th3.56,125.0,original
Ba1.72Ca4.78Cu2.65O3.27Tl8.96,124.0,original
Ca2.79Cu1.39O1.87Pb1.51Sr2.52Tl2.14,124.0,original
Ba1.72Ca1.05Cu0.76Hg5.77O1.09,124.0,original
Ba1.72Ca2.29Cu1.39O1.87Tl4.41,123.0,original
Ba1.72Ca2.29Cu1.39O2.15Tl8.96,123.0,original
Ba1.72Ca3.54Cu2.02O2.43Tl4.41,123.0,original
Bi0.12Ca2.29Cu1.39O1.87Pb0.53Sr2.87Tl2.6,122.0,original
Ba1.72Ca1.05Cu0.76Hg7.24O1.09,122.0,original
Ba1.72Ca1.05Cu0.76Hg7.24O1.1,122.0,original
Ba1.72Ca2.29Cu1.39O2.15Tl8.96,121.0,original
Ba1.72Ca1.05Cu0.76Hg7.24O1.08,121.0,original
Ba1.72Ca1.05Cu0.76Hg7.24O1.1,121.0,original
Ba1.72Ca3.54Cu2.02O2.71Tl8.96,120.0,original
Ba1.72Ca6.02Cu3.28O3.82Tl8.96,120.0,original
Ba1.72Ca2.29Cu1.39Hg5.77O1.68V0.1,120.0,original
Ba1.72Ca2.29Cu1.39Hg4.3O1.7Pb1.18,120.0,original
Ba1.72Ca2.29Cu1.39F6.16O1.26,120.0,original
H3.58O0.2W5.25,120.0,original
Cu0.76Gd8.95O1.59Rh0.24Ru2.09Sr3.22,13.0,original
Li7.24O0.48Ti8.52,13.0,original
Al0.45Ga0.53V2.32,13.0,original
C0.15La0.97Th0.28,13.0,original
C0.15Ti1.16Y1.32,13.0,original
Nb0.14Tc9.36,13.0,original
Au1.27Nb0.78,13.0,original
Al0.45B1.62Mg1.53,13.0,original
Mo7.34Pb3.13S8.78,13.0,original