formula,Tc
Y4Dy1Os4Ge10,6.900
Hg1Sm0.5In0.5Pb2,6.900
Mg1C1.6Ni3,6.900
Mg1C1Ni3,6.900
Bi0.25Pb0.75,6.900
Ge1V3,6.900
Hf0.2Ta0.8,6.900
In0.5Sn0.5,6.900
Mo0.39Ru0.61,6.900
V3Ga0.793Sb0.207,6.900
V3Ga0.78Sn0.22,6.900
V0.497Ti0.476Mo0.026,6.900
V0.487Ti0.508Mo0.005,6.900
Nb2Se2,6.900
La5B2C6,6.900
Mo1.965Zr0.035B1C1,6.900
Nb1Se2,6.900
Mg1.2C1.52B0.08Ni3,6.900
Ca3Ir4Sn13,6.900
K0.4Mo1S2,6.900
Rb0.3Mo1S2,6.900
Cs0.3Mo1S2,6.900
La1Ru3Si2,6.890
Mg1C0.814B0.111Ni3,6.880
Pb0.89Tl0.11,6.880
Pb1Tl0.12,6.880
Mg1C1Ni2.7Fe0.3,6.880
Er0.9Gd0.1Rh4B4,6.880
Li2Pd3B1,6.870
Er0.91Gd0.09Rh4B4,6.870
Ti0.106V0.894,6.860
Pr0.8Sr0.2Fe0.9Co0.1As1O1,6.860
Ba0.1K0.9Fe2As2,6.860
Bi2Se3,6.860
Hf0.4Ta0.6,6.850
Ba1Fe1.924Co0.076As2,6.850
Mg1C1Ni3,6.840
Nb0.63Ta0.37,6.840
Sc0.6V0.4,6.840
Ba1Fe1.58Ru0.42As2,6.830
Mo1.8W0.2B1C1,6.820
Si1,6.800
C3Er0.1Th1.9,6.800
Cs0.3Mo1S2,6.800
Cu0.1Sn0.9,6.800
In0.1Pb0.9,6.800
Ir0.2Ru0.05Zr0.75,6.800
Nb0.64Ta0.36,6.800
Re0.92V0.08,6.800
Re0.67Zr0.33,6.800
Re2Zr1,6.800
Nb3Sn0.56Ge0.44,6.800
Nb3Sn0.3Sb0.7,6.800
Ir1Mo3,6.800
Nb0.155Ti0.784Mo0.060,6.800
Y1Ni1.8Co0.2B2C1,6.800
La1Mo6S8,6.800
Mg1C1Ni2.97Cu0.03,6.800
La0.92Tm0.08Ru3Si2,6.800
B6Y1,6.800
Y0.9La0.1B6,6.800
Nb0.7Ta0.3,6.800
Mg1C1Ni3,6.800
Th1.9Er0.1C3,6.800
Th1.6Sc0.4C3,6.800
La0.95Ce0.05Ru4P12,6.800
Ba4C60,6.800
Ga0.1Fe0.9Se0.85,6.800
Ga0.25Fe0.75Se0.85,6.800
Ca3Ir4Sn13,6.800
Nb4Fe1Si1,6.800
Ca1Ge3,6.800
Fe1Te0.88S0.12,6.800
Ba8Al5Si41,6.800
Re6Zr1,6.800
Ag0.9Sn1.1Se1.8S0.2,6.790
Ti0.588V0.392Fe0.02,6.790
Bi0.85Sb0.15,6.790
Re0.75Ta0.25,6.780
Re3Ta1,6.780
Lu1Si3,6.780
La0.4Th0.6Pt4Ge12,6.770
Mg1C0.853B0.072Ni3,6.760
V0.765Si0.092Ge0.143,6.760
Sc0.3V0.7,6.760
Er1Rh2Ir2B4,6.760
Hg0.15Pb0.85,6.750
Nb1.02Se2,6.750
Re0.35W0.65,6.750
Lu2Ir3Si4.95Ge0.05,6.750
Nb0.25Re0.75,6.750
Re6Zr1,6.750
Re0.15Mo0.85,6.740
Pb0.85Tl0.15,6.730
Pb1Tl0.17,6.730
Ho1Ni1.995Co0.01B2C1,6.720
Mo0.1Nb0.9,6.720
Mg1C1Ni2.99Ru0.01,6.720
Ag0.76Sn1.24Se2,6.720
La1Fe1P1O1,6.720
Re6Zr1,6.720
La0.9Sr0.1Fe1As0.8P0.3O1,6.720
Mg1C1Ni2.99Ru0.01,6.710
Ti0.5V0.5,6.710
Si1,6.700
Ba4C60,6.700
Be3Ga1,6.700
Ge1V3,6.700
Ir0.26Mo0.74,6.700
C1Ti0.5W0.5,6.700
Ti0.5W0.5C1,6.700
Nb0.091Ti0.878Ta0.031,6.700
Th1Pt2B2C1,6.700
Y1Ni1.8Co0.2B2C1,6.700
Mo6Se6Br2,6.700
Mg1Co0.03Ni2.97,6.700
Pb0.2Yb0.8Mo6Se8,6.700
Mg1C1Ni3,6.700
Ag1B2,6.700
Th1.8Sc0.2C3,6.700
Cs0.19W1O3,6.700
Mo1.9Nb0.1B1C1,6.700
Nb1Se2,6.700
Sr1Al1Ge1,6.700
Fe1Te0.95Se0.05,6.700
Au0.125Sb0.75Te0.125,6.700
Au0.171Sb0.829,6.700
Ba1Fe1.92Co0.08As2,6.700
La1Pt1B1N1,6.700
La1Si10,6.700
La1Fe1P1F0.05O0.95,6.700
Re6Zr1,6.700
Pr2Pt3Ge5,6.700
H1Pt1,6.700
Ta0.7Hf0.3B1,6.700
Mo6Se7.5Te0.5,6.690
Nb5Ir0.8Pt2.2O1,6.690
Hf0.32Ta0.68,6.680
Mo6Se7.7Te0.3,6.660
Cr0.05Nb0.95,6.660
Zr0.5Y0.5P1Se1,6.660
In1Pb1,6.650
Fe0.99Ni0.01Se0.82,6.650
Y0.78Gd0.22Ni2B2C1,6.640
Lu4Sc1Ir4Si10,6.640
Tm1Ni1.9Fe0.1B2C1,6.640
Ca1Al1.1Si0.9,6.630
Pr0.98Ce0.02Pt4Ge12,6.630
La1.52Nd0.4Sr0.08Cu1O4,6.620
La1.5Nd0.4Sr0.1Cu1O4,6.620
Cu0.14Sn0.86,6.620
Ho0.95La0.05Ni2B2C1,6.620
Hf0.25Zr0.75,6.620
B12Li2.5,6.620
La1Ru2.94Co0.06Si2,6.620
Mg0.1Pb0.9,6.610
Ho0.8Dy0.2Ni2B2C1,6.610
Hf0.52Ta0.48,6.610
La1Fe1P1O1,6.610
La1.85Sr0.15Cu0.976Zn0.024O4,6.600
Sm0.7Pr0.3Ba2Cu3O6.75,6.600
Lu5Ir4Si8Ge2,6.600
B5Nb1.9Sc0.1,6.600
H0.94Pd1,6.600
Hf0.33Nb0.33V0.33,6.600
Mo0.75Rh0.25,6.600
N1Nb0.9V0.1,6.600
Pb1Sb1,6.600
Re24Ti5,6.600
Ti0.33V0.33Zr0.33,6.600
Nb3Rh0.5Au0.5,6.600
C1Hf0.25Mo0.75,6.600
Hf1N0.989,6.600
Re24Ti6,6.600
Ho1.8Dy0.2Ni2B2C1,6.600
Mo3Se4,6.600
Er1Ni1.97Co0.06B2C1,6.600
Mg1C1Ni3,6.600
Ge0.27V0.73,6.600
Ir0.42Ta0.58,6.600
Nb5Si2.2B0.8,6.600
La1Fe0.875Co0.125As1O1,6.600
La1Fe1P1O1,6.600
B0.048C0.952,6.600
Mg1.2C1.44B0.16Ni3,6.600
Ca1Pt3P1,6.600
Nb2Pd0.81S5,6.600
Au0.2Sb0.6Te0.2,6.600
Fe1Te0.8Se0.1S0.1,6.600
B6Y1,6.600
Re0.55Mo0.45,6.600
Li2B1Pd2.7Pt0.3,6.590
Ti0.588V0.392Ru0.02,6.580
Li2Pd2.55Ni0.45B1,6.580
B2Nb0.4,6.570
Ce0.91La0.09Ru2,6.570
Zr1Os1P1,6.570
La1Ru4P12,6.570
Sr1Pt2.4Pd0.6P1,6.570
Nb0.6Ta0.4,6.560
Ce0.94La0.06Ru2,6.550
Ce0.9Pr0.1Ru2,6.550
Fe3Re2,6.550
La1Sn3,6.550
Bi1,6.550
Bi4S3O4,6.550
Lu4Sc1Ir4Si10,6.540
Ca1Al0.9Ga0.1Si1,6.540
Nb0.58Ta0.42,6.540
Pr0.8Eu0.2Pt4Ge12,6.540
Re27Zr5,6.530
Mg1C1Ni2.98Ru0.02,6.520
Mo6Se7Cl1,6.520
C6Yb1,6.520
Zr2Co0.95Cu0.05,6.520
Dy1Ni2B2C1,6.510
La2.92Pr0.18Tl1,6.510
La1.94Sr0.06Cu1O3.995,6.500
La1.85Sr0.15Cu0.98Zn0.02O4,6.500
Nd1.85Ce0.15Cu0.985Fe0.015O4,6.500
K0.9Bi1.1O3,6.500
Mg1C1Ni3,6.500
C6Yb1,6.500
Sb1Ti3,6.500
Al0.3Be0.7,6.500
B6Y1,6.500
Bi0.86Tl0.14,6.500
Cu0.1Pb0.9,6.500
Ir2Th1,6.500
La1Os2,6.500
La1Sn3,6.500
Mo0.5Re0.5,6.500
Mo0.28Re0.72,6.500
Nb2.9V0.3Au1,6.500
Nb3Si0.6Sn0.4,6.500
Ag0.8Ga0.2,6.500
C1Mo1,6.500
La3S4,6.500
Sn0.174Ta0.826,6.500
La1Pt2.2B2C1,6.500
Th1Ni2B2C1,6.500
As1Nb3,6.500
C0.93Nb1,6.500
Tl2Mo6Se6,6.500
La1Ru3Si2,6.500
Ge0.25V0.75,6.500
Mg1C1Ni2.98Ru0.02,6.500
Th1Sc1C3,6.500
Th1Pt2B2C1,6.500
Nb0.15Zr0.85,6.500
As3La4,6.500
Th1Ir1Si1,6.500
Ca1Al1Si1,6.500
C3La2,6.500
Li2Pd2.4Ni0.6B1,6.500
Mg1C0.98Ni3,6.500
Bi0.1Sn0.9,6.500
La1Fe0.96Ni0.04As1O1,6.500
Fe1.12Se0.03Te0.97,6.500
Fe0.98Se0.25Te0.75,6.500
W4.8Ta0.2Si1B2,6.500
Te2W1,6.500
Mo6Se6.5Cl1.5,6.490
Mo0.4Re0.6,6.490
Nb0.1Ti0.9N0.98,6.480
Ba1Fe1.924Co0.076As2,6.480
Ag0.81Sn1.19Se2,6.470
Mo0.45Re0.55,6.470
C6Yb1,6.470
Lu0.8Ho0.2Ru1B2,6.460
Ca1.5Sr1.5Rh4Sn13,6.460
H0.965Pd1,6.450
Ce0.97La0.03Ru2,6.450
Al0.9Ge0.1,6.450
La1Ru2.85Co0.15Si2,6.450
Ir0.91Se2,6.450
Th1Rh0.96Si1.04,6.450
Pr0.85Eu0.15Pt4Ge12,6.450
Mg1C1Ni2.995Fe0.005,6.440
Mg1C0.771B0.154Ni3,6.440
Er0.25Ho0.75Rh4B4,6.440
La1Ru2.94Cu0.06Si2,6.440
Pb0.73Tl0.27,6.430
Pb0.79Tl0.21,6.430
Pb1Tl0.27,6.430
In0.5Pb0.5,6.430
La1Sn3,6.430
Er0.187Ho0.813Rh4B4,6.430
Nb0.13Zr0.87,6.420
Ho1Rh3.72Ru0.28B4,6.420
Ho1Rh3.6Ru0.4B4,6.420
Ca1.5Sr1.5Rh4Sn13,6.420
Nb5Ir0.4Pt2.6O1,6.420
Zr1V1.85Fe0.15,6.410
Tc0.7V0.3,6.410
Ho1Ir2Rh2B4,6.410
Tl0.45Bi0.46Mo6S7.5,6.410
Ca2.5Co0.5Rh4Sn13,6.410
Ca1.5Sr1.5Rh4Sn13,6.410
Zr0.6Lu0.4P1S1,6.410
La1.85Sr0.15Cu0.96Ni0.04O4,6.400
Ba0.47K0.53Bi0.99Pr0.01O3,6.400
Rb1Os2O6,6.400
Mg1C1Ni3,6.400
B2.5Nb1,6.400
Bi5Tl3,6.400
In0.5Nb3Zr0.5,6.400
Sn1Ta3,6.400
V3Si0.2Sn0.8,6.400
V2.739Hf0.261Ga1,6.400
Nb3In0.5Zr0.5,6.400
Ca1Rh2,6.400
Ge1Nb3,6.400
Y2I0.6Br1.4C2,6.400
Dy1Ni2B2C1,6.400
Nb1B0.2Rh3,6.400
Ge0.23V0.77,6.400
Ge0.21V0.79,6.400
V0.736Sb0.037Al0.227,6.400
La1Sn3,6.400
Nb3Zr0.5In0.5,6.400
Rh0.075Zr0.925,6.400
Re2Zr1,6.400
Mo6Se8,6.400
Nb5Si2.6B0.4,6.400
Nb5Si2B1,6.400
La1.74Sr0.26Cu1O4,6.400
Lu0.9Gd0.1Ru1B2,6.400
Li2Pd2.85Pt0.15B1,6.400
Zr1Ru1P0.85B0.15,6.400
Zr0.99V0.01B2,6.400
Ca2Al2.73Si4.27,6.400
Ba1Fe1.8Ni0.2As2,6.400
Ba0.818Na0.182Fe2As2,6.400
Tb0.5Sn1Se2,6.400
Tb0.75Sn1Se2,6.400
Tb1Sn1Se2,6.400
Pb1S1Yb1,6.390
Mo6Se6Cl2,6.390
Lu5Ir4Si9Ge1,6.380
Mo0.1Nb0.9,6.380
Mo6Se8,6.380
Y1Mo6Se8,6.380
Dy1Ni2B2C1,6.380
La0.9Sr0.1Fe1As0.8P0.5O1,6.380
Ba0.08K0.92Fe2As2,6.370
Zr1.85Y0.15P1.25Se0.75,6.370
In0.6Pb0.4,6.360
La0.5Nd0.5Pt2.1B2.4C1.2,6.360
Ag0.81Sn1.19Se2,6.360
Ca2.25Sr0.75Ir4Sn13,6.360
Mo0.42Re0.58,6.350
Ho1Rh3Ru1B4,6.350
Lu0.05Dy0.95Ni2B2C1,6.350
Nb1Se2.2,6.350
Ho1Rh2Ir2B4,6.350
Ga0.1Pb0.9,6.330
Mo6Se7.5Cl0.5,6.330
Rb1Os2O6,6.320
Lu2Ir3Si4.98Ge0.02,6.320
Y0.65Pr0.35Ba2Cu3O6.75,6.300
Rb1Os2O6,6.300
Ce1Ru2,6.300
La0.3Th0.7Ni1C2,6.300
Te1,6.300
Rb1Os1O6,6.300
Be2Ga1,6.300
Mo3Se4,6.300
Ti0.9V0.1,6.300
Cs0.3Mo1S2,6.300
Co1Zr2,6.300
Ga1V2.1,6.300
Mo6Se8,6.300
Mg1C1Ni2.94Cu0.06,6.300
B2Re1,6.300
Mg1C0.965Ni3,6.300
Ho1Th3.4Ru0.6B4,6.300
Pb0.1Yb0.9Mo6Se8,6.300
Mo6Se7.85S0.15,6.300
Mo6Se7.9Te0.1,6.300
Ti0.91V0.09,6.300
Zr0.227V0.724Nb0.049,6.300
Ba1Al1Ge1,6.300
Zr1P1.25Se0.75,6.300
Dy1Ni2B2C1,6.300
Re0.65Mo0.35,6.300
Rb1Os2O6,6.290
Th0.25Zr0.75,6.290
Mo6Se7.6,6.280
Ce1Ru2,6.280
Ge1Nb3,6.280
Pb0.9Sb0.1,6.280
Mo6Se8,6.280
Hf0.5Ta0.5,6.280
Rb1Os2O6,6.280
Zr1P1.4Se0.6,6.280
Nb1S2,6.260
Re3V1,6.260
Dy1Ni2B2C1,6.260
La0.87Th0.13Sn3,6.260
Hf0.2Ta0.8,6.260
Sr1Fe2As0.8P1.2,6.260
Mg1C1Ni2.99Fe0.01,6.250
Mo1Rb0.3S2,6.250
Nb0.5Ta0.5,6.250
Nb3Rh0.5Pt0.5,6.250
Mo6Se8,6.250
Ti0.7V0.3,6.250
Lu2Fe3Si5,6.250
Ba1Pt3.25Au0.75Ge12,6.250
Nb2Pd1S5,6.250
Dy1Ni2B2C1,6.240
La1,6.240
Zr1P1.35Se0.65,6.240
Ir0.94Se2,6.240
Ce1Ru2,6.230
Bi0.85Tl0.15,6.230
Ho0.2Dy0.8Ni2B2C1,6.230
Dy1Ni2B2C1,6.230
Ag0.85Sn1.15Se2,6.230
Mo6Se6.5Te1.5,6.230
La1,6.230
La1Ru2.94Cr0.06Si2,6.230
Sr1Fe1.68Zn0.12Co0.2As2,6.220
La1Ru2.97Fe0.03Si2,6.220
Zr1P1.3Se0.7,6.220
Mo5.8Ru0.2Se8,6.210
Ca1Al1Si1,6.200
Ce1Ru2,6.200
B12Zr1,6.200
Ce1Ru2Sc1,6.200
Ge0.1In0.9,6.200
Ir0.2Si0.05Zr0.75,6.200
K0.28Mo1S2,6.200
Nb1S2,6.200
Nb0.45Re0.55,6.200
Nb0.25Sn0.25Ta0.25V0.25,6.200
Nb0.47Ta0.53,6.200
Nb0.15Zr0.85,6.200
Rh2Sr1,6.200
Sn1Ta3,6.200
Nb1Se2,6.200
Nb1Ta1V1Sn1,6.200
Nb1Sn1Ta1V1,6.200
V0.511Ti0.435Mo0.054,6.200
Y1Ni1.86Fe0.14B2C1,6.200
Dy1Ni2B2C1,6.200
Pr1Pt1.5Au0.6B2.4C1.2,6.200
Er1Ni1.968Co0.065B2C1,6.200
Ge1Nb3,6.200
Al0.72Nb3.28,6.200
Lu1Rh4B4,6.200
Mo6Se8,6.200
Ho0.2Dy0.8Ni2B2C1,6.200
In0.6Pb0.4,6.200
Mo5.25Nb0.75Se8,6.200
La3Sn1,6.200
La3Ni1,6.200
Mo1.935Zr0.065B1C1,6.200
Mo1.85Nb0.15B1C1,6.200
La3Pr0.3In1,6.200
Lu2Fe3Si5,6.200
Ga1P1,6.200
As1Ga1,6.200
Lu2Ir3Si4.75Ge0.25,6.200
Ca2Al3Si4,6.200
Ba1Fe1.926Co0.074As2,6.200
Ba0.82Pr0.18Fe2As2,6.200
La1Fe1P1F0.1O0.9,6.200
Sb2Te3,6.200
Hf1Re6,6.200
K2Cr3As3,6.200
Rb1Cr3As3,6.200
Zr1P1.25Se0.75,6.200
Ba0.8Rb0.2Ti2Sb2O1,6.190
La0.95Lu0.05Ru3Si2,6.190
Mo0.342Ru0.216P0.441,6.180
Ce1Ru2,6.180
Ga0.8Sb0.2,6.180
Ce1Ru2,6.170
Al1La3,6.160
La1Ru2.97Fe0.03Si2,6.160
Cu1La1,6.150
Ca1Ir2,6.150
Er0.85Tb0.15Ni2B2C1,6.150
Lu2Fe3Si5,6.150
Er0.134Ho0.866Rh4B4,6.150
Ce0.88La0.12Ru2,6.140
Ti0.7V0.3,6.140
Ho1Rh3.4Ru0.6B4,6.140
Ba1Fe1.856Ni0.144As2,6.140
Ir1Mo3Nb3Pt1,6.130
Mo6Se8,6.130
Nb0.826O0.174,6.130
Zr0.224V0.744Nb0.032,6.130
B2Nb1,6.130
La0.92Y0.08Ru3Si2,6.130
Ge0.18Nb0.82,6.120
Ag0.85Sn1.15Se2,6.120
Bi1La1,6.120
Ge2Mo1,6.110
La1.85Sr0.15Cu1Ni0.037O4,6.100
Mg1C1Ni2.967Ru0.033,6.100
B2Nb0.3,6.100
Ce1Ru2,6.100
Ge1V3,6.100
K0.4Mo1S2,6.100
Mo0.865Re0.135,6.100
Nb1S2,6.100
V3Si0.2Ge0.8,6.100
C1Hf0.7Nb0.3,6.100
Lu2Fe3Si5,6.100
Lu1Re1B1C1,6.100
Hf1Os1P1,6.100
B0.67Mg0.33,6.100
La0.84Tm0.16Ru3Si2,6.100
V0.741Sb0.113Al0.146,6.100
Rh0.08Zr0.92,6.100
Ca1Al1Si1,6.100
Ba3Ir4Ge16,6.100
Ba0.88K0.12Ti2Sb2O1,6.100
K2Cr3As3,6.100
Mo1Te2,6.100
Ti1V1,6.090
Lu4.5Sc0.5Ir4Si10,6.090
Sc0.07V0.93,6.090
Zr1B12,6.090
Fe1Se0.75S0.25,6.090
Ti0.576V0.384Fe0.04,6.080
Ga1,6.070
Zr2Co0.9Cu0.1,6.070
Re0.6Mo0.4,6.070
La1.48Nd0.4Sr0.12Cu1O4,6.060
Lu4.75Sc0.25Ir4Si10,6.060
B12Zr1,6.060
La1,6.060
Ge0.18Nb0.82,6.050
Nb0.35Hf0.65N1,6.050
Rh0.075Zr0.925,6.050
Fe1.12Se0.11Te0.83,6.050
Nb1S2,6.050
La2.96Gd0.04In1,6.040
La1Ru2.76Co0.24Si2,6.040
Ga1,6.040
Li0.34Rb1Sr2Nb3O10,6.030
Nb0.740Ga0.197Mn0.063,6.030
Pb1Te1S1,6.030
Ti0.1V0.9,6.030
Lu4.5Sc0.5Ir4Si10,6.030
Ho0.6Dy0.4Ni2B2C1,6.020
La1Sn3,6.020
Li0.1Rb1Sr2Nb3O10,6.020
Li0.34Rb1Sr2Nb3O10,6.010
La1Fe0.985Zn0.015As1O0.85,6.010
Ta0.85Zr0.15B1,6.010
La1.85Sr0.15Cu0.979Co0.021O4,6.000
La1.875Ba0.1Sr0.025Cu1O4,6.000
C60Yb2.75,6.000
Y1Ba2Cu2.91Zn0.09O6.6,6.000
La1.75Sr0.25Cu1O4,6.000
Nd2Cu1F0.1O4,6.000
K0.95Bi1.05O3,6.000
Pr1.8Ce0.2Cu1O4,6.000
B12Zr1,6.000
C60Yb3.5,6.000
Ca1Al1Si1,6.000
Pr1Pt2B2C1,6.000
Hg1Pb2.3,6.000
Na0.33V2O5,6.000
Lu5Ir4Si9.5Ge0.5,6.000
La9Br5B3C6,6.000
Ba6.63Si46,6.000
B5Nb1.8Ru0.2,6.000
Ba1Rh2,6.000
Be6Ga1,6.000
Co0.85Ni0.15Zr2,6.000
In0.488Na0.025Pb0.488,6.000
Re0.6W0.4,6.000
Rh0.53Se0.47,6.000
Rh0.36Se0.64,6.000
C1Nb1,6.000
Rh1Se1.75,6.000
C0.7Nb0.3,6.000
Ce1Ru2,6.000
Ge0.29Nb0.71,6.000
Ge1Nb3,6.000
N1Nb1,6.000
Ta0.081Ti0.919,6.000
Pr1Pt1.5Au0.6B2C1,6.000
Ho0.6Dy0.4Ni2B2C1,6.000
Dy1Ni2B2C1,6.000
Lu1Ni1.87Co0.26B2C1,6.000
Zr2Rh1H0.7,6.000
Nb1S2,6.000
Mg1C1Ni2.91Cu0.09,6.000
Mg1Co0.06Ni2.94,6.000
Mg1Co0.09Ni2.91,6.000
Pr1Pt2.1B2.4C1.2,6.000
Yb1Mo6Se8,6.000
Y2I0.5Br1.5C2,6.000
Zr2Co0.85Ni0.15,6.000
Be1,6.000
P1,6.000
Ba8Si40Ge6,6.000
Nb0.85V0.15,6.000
La2.971Gd0.029In1,6.000
Mg0.73Sc0.27B2,6.000
Lu2Fe3Si5,6.000
Y1Os3B2,6.000
Th0.8Sc1.2C3,6.000
Th1Ni2B2C1,6.000
Sn0.24Eu0.8Mo6.35S8,6.000
Mo0.4Re0.6,6.000
Al1La3,6.000
Ge1V3,6.000
Bi0.6Tl0.4,6.000
La1,6.000
Lu1Fe3Si5,6.000
La1Fe0.85Co0.15As1O1,6.000
B6Y1,6.000
Fe1.02Se1,6.000
Na1Fe1As1,6.000
Fe1Se0.13Te0.87,6.000
Li1Fe1P1,6.000
Fe1.035Te0.78Se0.22,6.000
Ba1Fe1.856Ni0.144As2,6.000
B1,6.000
Cs0.23W1O3,6.000
Fe2As2Sr4Mg1Ti1O6,6.000
Nb4Co1Si1,6.000
Ca10Pt3.28Fe9.72As18,6.000
Cu0.14Bi2Te3,6.000
Au0.1Sb0.8Te0.1,6.000
Sm1Fe0.92Ni0.08As1O1,6.000
Ba8Si41Al5,6.000
Nb2Pd1S5,6.000
Mg1.4Al0.6Si1,6.000
Mg1Al1Si1,6.000
Zr1V1Ge1,6.000
Eu0.9La0.1Fe1As2,6.000
Te5Zr1,6.000
Mo3Sb7,6.000
Re24Ti5,6.000
Re6Ti1,6.000
Ta1Rh2B2,6.000
Ta0.75Zr0.25B1,6.000
Ba1Bi3,6.000
Nb0.91Ni0.09B2,6.000
In0.753Sn0.150Pb0.049Si0.048,6.000
Y1Ba2Cu3O6.55,59.900
Y1Ba2Cu3O6.59,59.900
Sm1Ba2Cu3O6.709,59.800
Y0.8Pr0.2Ba2Cu3O7.4,59.800
La0.8Pr0.2Ba2Cu3O7,59.800
Y1Ba2Cu3O6.64,59.700
Ca0.2Ba1.55La1.25Cu3O7.11,59.700
Y0.7Pr0.3Ba2Cu3O7,59.700
Y1Ba2Cu3O6.71,59.600
Y1Ba2Cu3O6.49,59.530
Y1Ba2Cu3O6.556,59.400
Y1Ba2Cu3O6.602,59.400
Y1Ba2Cu3O6.546,59.400
Y0.7Pr0.3Ba2Cu3O6.97,59.300
Y0.7Pr0.3Ba2Cu3O7,59.200
Sm1Ba2Cu3O6.82,59.200
Gd0.85Mo0.15Ba2Cu3O6.855,59.200
Lu0.6Pr0.4Ba2Cu3O7,59.100
Pb2Sr2Ho0.5Ca0.5Cu2.97Al0.03O8,59.100
Y1Ba2Cu3O6.67,59.100
Y1Ba2Cu3O6.7,59.100
Y0.85Pr0.15Ba2Cu3O6.8,59.000
La0.25Dy0.75Ba1Ca1Cu3O7,59.000
Y0.7Ca0.3Ba2Cu2.7Co0.3O6.78,59.000
Y1Ba2Cu3O6.71,59.000
Pb2Sr2Eu0.95Ca0.05Cu3O8.1,59.000
Y1Ba2Cu0.97Zn0.03O7.95,59.000
Y1Ba2Cu3.96Fe0.04O8,59.000
Hg1Ba2Cu1O4.34,59.000
Y1Ba2Cu3O6.6,59.000
Sm1Ba2Cu2.94Zn0.06O6.85,59.000
Y1Ba1.6La0.4Cu3O7.04,59.000
Y1Ba2Cu3O6.56,59.000
La3Ca0.5Cd0.5Ba3Cu7O16.375,59.000
Tl2Ba2Cu1O6,59.000
Y1Ba2Cu3O6.6,58.900
Y1Ba2Cu3O6.65,58.900
Y1Ba2Cu3O6.66,58.900
Y1Ba2Cu2.8Fe0.2O6.9,58.800
Y1Ba2Cu3O6.5,58.800
Y1Ba2Cu3O6.61,58.700
Y0.8Pr0.2Ba2Cu3O7,58.700
Y1Ba2Cu3O6.516,58.700
Y1Ba1Sr1Cu3O6.83,58.500
Y0.8Pr0.2Ba2Cu3O6.95,58.500
Y1Ba2Cu3O6.556,58.500
Fe0.5Sr1Ba1Y1Cu2.5O7,58.500
Bi2Sr2Ca0.8Pr0.2Cu2O8,58.450
Y1Ba2Cu3O6.6,58.400
Y1Ba2Cu3O6.55,58.300
I1Bi2Sr2Ca1Cu2O8,58.300
Y1Ba2Cu3O6.6,58.200
Y1Ba2Cu2.775Co0.225O6.99,58.000
Y1Ba2Cu2.6Ni0.4O7,58.000
Tl2Ba2Cu1O5.94,58.000
Y1Ba2Cu3O6.54,58.000
Y1Ba2Cu3O6.6,58.000
Y1Ba2Cu4Li0.125O8,58.000
Y1Ba2Cu4Li0.25O8,58.000
Y1Sr2Cu2.7Ti0.3O7,58.000
Bi2Sr2Ca1Cu2I1O8,58.000
Y0.6Pr0.4Ba2Cu4O8,58.000
Sr1.75Ba0.25Cu1F2O2,58.000
Y1Ba2Cu3.88Co0.12O8,58.000
Lu0.7Ca0.3Ba2Cu3O6.15,58.000
Eu1.4Pr0.6Ba4Cu7O14.632,58.000
La2.9Gd0.3Ca0.6Ba3.2Cu0.3O16.503,58.000
Y1Ba2Cu3O6.72,58.000
La2.5Y0.5Ca1Ba3Cu6.44Fe0.56O16.617,58.000
Ru1Sr2Gd0.6Dy0.4Cu2O8,58.000
Tl1Sr2Ca0.8Pr0.2Cu2O7,58.000
Y1Ba2Cu2.97Zn0.03O6.75,58.000
Dy1Ba2Cu2.8Fe0.2O6.93,58.000
La1.9Gd1.1Ca1Ba2.4Sr0.6Cu6.58In0.42O16.554,58.000
Eu0.8Pr0.2Ba2Cu3O6.97,57.900
Y1Ba1.9La0.1Cu3O6.8,57.900
Y0.9Ca0.1Ba1.5La0.5Cu3O7.19,57.900
Y1Ba2Cu3.96Co0.04O8,57.900
Y1Ba2Cu3O6.6,57.850
Y1Ba2Cu2.982Zn0.018O6.75,57.800
Y1Ba2Cu2.8Fe0.2O6.85,57.700
Gd0.8Pr0.2Ba2Cu3O7,57.700
Y1Ba2Cu3O6.829,57.700
Y1Ba2Cu3O6.516,57.700
La1.5Pr0.5Ca1Ba2Cu5O11.782,57.700
Y1Ba2Cu3.96Zn0.04O8,57.600
Y0.8Pr0.2Ba2Cu3O7.1,57.600
Nd1Ba1.7La0.3O6.77,57.500
Y0.9Ca0.1Ba2Cu2.9Co0.1O6.76,57.500
Y0.85Ca0.15Ba2Cu2.85Co0.15O6.78,57.500
Sm0.9Pr0.1Ba2Cu3O6.95,57.500
Y1La0.3Ba1.7Cu3O7,57.450
Y1Ba2Cu2.94Zn0.06O7,57.400
Y0.7Pr0.3Ba2Cu3O6.98,57.400
Y1Ba2Cu3O6.58,57.400
La1.25Ba1.65Ca0.1Cu3O7.15,57.300
Y1Ba2Cu3O6.57,57.200
Nd0.95Pr0.05Ba2Cu3O6.85,57.200
La1Ba1.5Sr0.5Cu3O6.948,57.100
La0.7Pr0.3Ba2Cu3O7,57.100
Ca0.1La1.15Ba1.75Cu3O7.148,57.100
Y1Ba2Cu2.844Fe0.156O7,57.000
Y1Ba2Cu2.9Zn0.1O6.94,57.000
Y1Ba2Cu2.88Fe0.12O7,57.000
La1Ba1Sr1Cu3O6.94,57.000
La1Ba1Cu2.94Co0.06O7,57.000
Cu2C0.5Ca3O6.6,57.000
Y0.7Pr0.3Ba2Cu3O6.96,57.000
Ca0.1La0.35Ba1.65Cu3O7.15,57.000
Y1Ba2Cu3.96Ni0.04O8,57.000
Ca0.4La1.25Ba1.35Cu3O7.055,57.000
Y1Ba2Cu3O6.65,57.000
Bi2Sr2Ca0.6Pr0.4Cu2O8.316,57.000
Y1Ba1.5La0.5Cu3O7.17,57.000
Y1Ba2Cu2.9Zn0.1O6.94,56.900
Y1Ba2Cu2.91Zn0.09O7,56.900
Y1Ba2Cu3O6.729,56.800
Y1Ba2Cu3.956Zn0.044O8,56.800
C0.54Sr2Ca0.6Y0.4Cu2.38O6.89,56.700
Bi2Sr2Ca1Cu2I0.4O8.242,56.700
Ba1.8Sr0.2Yb1Cu3O6.61,56.700
Y1Ba2Cu3O6.66,56.700
Y1Ba2Cu3O6.64,56.650
Sm1.2Ba1.8Cu3O7.01,56.500
Tl1Ba1Sr1Cu1O5,56.500
Y1Ba2Cu3O6.6,56.500
Bi1.8Ga0.2Sr1.8Ca1.2Cu2O8,56.500
Y0.9Ce0.1Ba2Cu4O8,56.500
Gd0.8Th0.2Fe1As1O1,56.500
Sm1Ba1.9Pr0.1Cu3O6.99,56.400
Y1Ba2Cu3O6.58,56.300
Bi2Sr2Ca1Cu2I0.61O8.21,56.300
Y1Ba2Cu3O6.65,56.300
Y1Ba2Cu3.96Zn0.04O8,56.250
Gd1Fe1As1H0.1O0.9,56.200
Y0.8Pr0.2Ba2Cu3O6.8,56.100
Y0.9Pr0.1Ba2Cu3O6.65,56.100
Nd1Ba2Cu3S1O5,56.000
Y1Ba1.66La0.34Cu3O7.073,56.000
Tl2Ba2Cu1O5.943,56.000
Y1Ba2Cu3O6.7,56.000
Y1Ba2Cu2.91Zn0.09O7,56.000
Y1Sr2Cu2.675Ti0.325O7.1,56.000
Y0.6Ca0.4Sr1.6Ba0.4Cu2Ga1O7,56.000
Sr2Tm1Cu3O7.28,56.000
Sr1.5Ba0.5Y1Cu2.8Ga0.2O7.14,56.000
Nd1.8Pr0.2Ba4Cu7O14.587,56.000
La0.75Dy0.25Ba1Ca1Cu3O7,56.000
Y1Ba2Cu3.96Zn0.04O8,56.000
Y1Ba2Cu2.91Zn0.09O6.95,56.000
Hg1Ba2Cu1O4.36,56.000
Y1Ba2Cu3O6.5,56.000
Y1Ba2Cu3O6.52,56.000
La1Ba1.5Ca0.5Cu3O7.16,56.000
Y1Ba2Cu2.982Zn0.018O6.78,56.000
La0.8Ca0.1Pr0.1Ba1.5Sr0.5Cu3O6.856,56.000
Fe1Sr2Y1Cu2O7.68,56.000
Ba2Ca3Cu4F2O8,56.000
Y1Ba2Cu2.91Zn0.09O7,55.870
Y1Ba2Cu3.96Zn0.04O8,55.800
Gd1Ba1.85Pr0.15Cu3O7.09,55.800
Er0.7Ca0.3Ba2Cu3O6.83,55.700
Y0.7Pr0.3Ba2Cu3O7,55.670
Y1Ba2Cu2.74Fe0.26O7,55.600
Y0.85Ca0.15Sr0.5Ba1.5Cu2.5B0.5O7,55.600
Y1Ba2Cu3O6.55,55.550
Bi2Sr2Ca1Cu2I0.86O8.242,55.500
Y1Ba2Cu3O6.54,55.500
Y0.8Ca0.2Ba2Cu2.8Co0.2O6.78,55.500
Y1Ba2Cu3O6.61,55.500
Y1Ba2Cu2.9Co0.1O6.89,55.300
Eu1Ba2Cu2.8Co0.2O6.98,55.300
Tl1Sr1.65Th0.35Ca1Cu2O7,55.300
Tl1Sr2Ca0.65Th0.35Cu2O7,55.300
Sm1Fe1As1H0.19O0.81,55.300
Y1Ba2Cu3.92Ni0.08O8,55.100
Y1Ba2Cu2.9Ni0.1O6.87,55.000
Y1Ba2Cu2.9Zn0.1O6.81,55.000
Er1Ba2Cu3O6.31,55.000
Er1Ba2Cu2.85Zn0.15O7,55.000
Y1Sr2Cu2.75Mo0.25O7.1,55.000
Pb0.5Ca1Sr2Y0.5Cu2O6.97,55.000
Bi2Sr2Ca0.55Y0.45Cu2I1O8,55.000
Y0.9Ce0.1Ba2Cu4O8,55.000
Y1Sr2Cu2.8Re0.2O7,55.000
Tl1Sr1.7Ca0.3Yb1Cu2O7,55.000
Tl1Sr1.5Ca0.5Yb1Cu2O7,55.000
Sr2Tm1Cu3O7.48,55.000
Ca1La1Ba1Cu2.85Zn0.045O7,55.000
Ba1.6Sr0.4Yb0.95Ca0.05Cu3O6.58,55.000
Tl0.5Bi0.5Sr4Cu2C1O10,55.000
La0.75Nd0.25Ba1Ca1Cu3O7,55.000
La1.82Ca1.18Cu2O6,55.000
La0.5Dy0.5Ba1Ca1Cu3O7,55.000
La3.1Y0.2Ca0.4Ba3.3Cu7O16.529,55.000
Y1Ba2Cu3O6.52,55.000
Y1Ba2Cu3O6.5,55.000
Y1Ba2Cu3F1.26O6,55.000
Y1Ba2Cu3F1.46O6,55.000
Yb0.65Pr0.35Ba1.7Sr0.3Cu3O6.95,55.000
La1.5Ba1.1Ca0.4Cu3O7.05,55.000
Y0.7Pr0.3Ba2Cu3O6.965,55.000
Y1Ba1.85Cu2.85Co0.15O6.94,55.000
Bi1.6Sr0.4Yb1Cu3O6.817,55.000
Y1Ba2Cu2.91Zn0.09O6.93,55.000
Y1Ba2Cu2.94Zn0.06O6.83,55.000
Y1Ba2Cu3O6.57,55.000
Ba2Ca3Cu4F2O8,55.000
Bi0.3Pb0.3La1.2Sr1.2Cu2O5.81,55.000
Sm1Fe1As1O0.85,55.000
Sm1Fe1As1O0.67,55.000
Sm1Fe1As1F0.6O0.6,55.000
Gd1Fe1As1H0.1O0.9,55.000
Sm1Fe1As1H0.25O0.75,55.000
Fe1Se1,55.000
Y0.9Zn0.1Ba2Cu3O7,54.900
Y1Ba2Cu3O6.54,54.900
Y0.74Ca0.16Sr1.6Ba0.5Cu2.78S0.22O7,54.900
Sm1Fe1As1O0.85,54.900
Y1Ba2Cu3O6.53,54.800
Y1Ba1.7La0.3Cu3O7,54.800
Bi1.8Pb0.2Sr2Ca1Cu1.98Fe0.02O8,54.800
La0.6Pr0.4Ba2Cu3O7,54.800
Y1Ba2Cu2.8Zn0.2O6.88,54.700
Sm1Ba2Cu3O6.85,54.700
Sm1Fe1As1H0.25O0.75,54.700
Y1Ba2Cu3O6.68,54.600
Sm1Fe1As1F0.1O0.9,54.600
Y1Ba2Cu2.9Ni0.1O6.85,54.500
Y0.9Ca0.1Ba2Cu3O6.5,54.500
Y1Ba1.9La0.1Cu3O6.7,54.500
Nd0.9Ca0.1Ba0.6La0.4Cu3O6.7,54.500
Bi1.7Pb0.3Sr2Ca0.8Y0.2Cu1.94Zn0.06O8,54.400
Y1Ba2Cu3O6.52,54.350
Er1Ba2Cu3O6.53,54.300
Y1Ba2Cu3.84Co0.16O8,54.300
C0.53Sr1.99Ca0.56Y0.45Cu2.39O6.94,54.200
Sm1Fe1As1H0.12O0.77,54.200
La1Ba1.25Sr0.75Cu3O6.996,54.100
Y1Ba2Cu3O6.55,54.100
Y1Ba1.5La0.5Cu3O7.17,54.100
Y2Ba4Cu7O14.81,54.100
Y1Ba2Cu3O6.5,54.100
Y1Ba2Cu2.88Fe0.12O7,54.000
Y1Ba2Cu2.841Co0.159O6.8,54.000
Y1Ba2Cu2.75Ni0.25O7,54.000
Y1Ba2Cu3O6.54,54.000
La1.7Sr0.3Ca1Cu2O6,54.000
Lu1Ba1Sr1Cu3O6.94,54.000
Bi1.6Pb0.4Sr6Cu3C2O16,54.000
Sr1.9Ba0.1Cu1F2O2,54.000
Nd1.1Ba1.5Ca0.4Cu3O6.864,54.000
La1.8Sr0.2Ca1Cu2O5.96,54.000
Y1Ba2Cu3O6.53,54.000
Er0.52Ca0.48Ba1.4Sr0.6Cu2.76Co0.24O6.77,54.000
Lu0.7Ca0.3Ba2Cu3O6.78,54.000
Y0.6Pr0.4Ba2Cu4O8,54.000
Lu0.6Pr0.4Ba2Cu3O7,54.000
Eu0.7Sr0.3Ba1.6Pr0.1Cu3O6.91,54.000
La1Ba1.5Sr0.5Cu3O6.902,54.000
La1.6Pr0.4Ca0.8Ba2Cu4.8O11.106,54.000
Nd1Fe1As1O0.2,54.000
Nd1Fe1As1O0.6,54.000
Ca0.4Nd0.6Fe1As1F1,54.000
Sm1Fe1As1O0.85,54.000
Y0.8Ca0.2Sr1.6Ba0.4Cu2.7Ga0.3O7,53.900
Dy0.7Pr0.3Ba2Cu3O6.9,53.900
Eu0.7Pr0.3Ba2Cu3O7,53.800
Nd1Fe1As1O0.7,53.700
Y0.4Ca0.3Pr0.3Ba2Cu3O7.02,53.600
Hg0.2Cr0.8Sr2Cu1O4,53.600
Gd1Fe1As1O0.7,53.600
Sm1Fe1As1F0.3O0.7,53.560
Bi1.7Pb0.3Sr2Ca0.6Y0.4Cu1.94Zn0.06O8,53.500
Gd1Fe1As1O0.85,53.500
Gd0.93Ca0.07Ba1Sr1Cu3O6.88,53.500
Sr0.5Sm0.5Fe1As1F1,53.500
Ba2Cu1O4,53.500
Fe1Sr2Y1Cu2O7.51,53.500
Y0.25Cd0.75Ba2Cu3O7,53.200
Y1La1.6Ba3.4Cu6O14.38,53.100
Y1Ba2Cu2.9Fe0.1O6.8,53.100