formula,Tc,type
Mo0.6Re0.47,10.0,original
Ir0.6Nb0.58,10.0,original
Os12.44Si4.28Y9.22,10.0,original
As0.65Ce5.81Co0.32F0.41Fe0.89,10.0,original
Ga47.26Mo9.84,10.0,original
Bi3.16Eu13.73F20.82S4.3Sr1.46,10.0,original
As0.65Fe0.96Li7.24,10.0,original
As14.67Ca12.24Fe11.26Pt12.01,10.0,original
B1.62Nb0.89,10.0,original
Hf8.58V1.53Zr0.35,10.0,original
Be0.91,10.0,original
B1.62Dy2.02Ni4.79Tm6.16,10.0,original
Hf7.89V1.53Zr0.62,10.0,original
B1.62Gd1.07Lu2.85Ni4.79,10.0,original
Cu0.13La2.36O0.48,10.0,original
Cu0.13La2.12O0.48,10.0,original
Ga0.19V0.57,10.0,original
Be0.79Pb0.34,10.0,original
Nb0.78Ti0.51Zr0.23,10.0,original
Re0.84W2.06,10.0,original
Tc74.15Zr3.7,10.0,original
Re1.16,10.0,original
Si0.11Sn0.25V2.32,10.0,original
Ta5.24,10.0,original
Nb0.34Ti1.55Zr0.64,10.0,original
Ga0.12Nb0.85,10.0,original
Nb0.34Ta3.1,10.0,original
Al0.17V0.44,10.0,original
Ir0.55Nb0.61,10.0,original
Nb0.47Zr1.77,10.0,original
Ga0.13V0.61,10.0,original
Fe0.64Mn4.21Se0.45,10.0,original
Fe0.89Te1.75,10.0,original
Fe1.02H3.58La1.11Si0.25,10.0,original
Hf9.88V1.53,10.0,original
Be0.88,10.0,original
Se0.54,10.0,original
V0.53Zr0.65,10.0,original
V0.56Zr0.69,10.0,original
B3.4Er3.31Rh7.17Y0.99,10.0,original
Bi1.64S0.95Sb1.02Te4.87,10.0,original
Nb0.97Ti0.29,10.0,original
Ce0.71Cu0.13Nd9.09O0.48,10.0,original
Ba1.13Ca0.18Cu1.39La1.47O1.3,10.0,original
Cu0.12La2.23O0.48,10.0,original
Ce0.71Cu0.13Gd9.85O0.47Sm5.07,10.0,original
Cu0.13La2.37O0.48,10.0,original
Li7.97O0.48Ti8.09,10.0,original
C0.17La1.11,10.0,original
Rh0.19Zr3.04,10.0,original
Nb3.63Pt2.24,10.0,original
C10.41Cs9.75Na7.87,10.0,original
Br8.84C0.24I12.3Y4.44,10.0,original
Hf0.9Nb0.97,10.0,original
Zr3.39,10.0,original
As1.47Fe2.07Ni0.26Sr1.46,10.0,original
As1.47Ba0.64Fe2.17,10.0,original
As0.65Fe0.89Sm6.8,10.0,original
Fe1.02Te2.12,10.0,original
Ir0.89Rh0.53Se1.15,10.0,original
Fe1.02Se0.52,10.0,original
V0.52Zr0.63,10.0,original
Cd1.13In1.5La3.98,10.0,original
Hf7.89Ta0.96V1.53,10.0,original
As1.47Ba0.1Fe2.17K2.59Mn1.37,10.0,original
Hf0.41Nb1.04,10.0,original
Ba0.64Bi0.12O0.2Pb2.48,10.0,original
Cu0.13La2.38O0.48,10.0,original
Cu0.13La2.49O0.48,10.0,original
Ce0.71Cu0.13O0.48Pr1.12Y0.54,10.0,original
Ce0.71Cu0.13Gd8.27O0.48Pr0.69,10.0,original
Ce0.71Cu0.11Nd9.09O0.48,10.0,original
Be0.89,10.0,original
Zr1.46,10.0,original
Ga2.26Mo1.1,10.0,original
Hf4.89Nb0.47,10.0,original
Ir0.41Mo0.35Re0.39,10.0,original
Rh0.13Zr3.16,10.0,original
Au5.34Nb3.63Rh0.42,10.0,original
Be9.65,10.0,original
Mo1.1Ru2.65,10.0,original
B1.62Er7.65Ni4.79,10.0,original
B1.62Ta5.24,10.0,original
Hf9.88P3.64Ru11.04,10.0,original
Ga0.64V2.32,10.0,original
B1.62Nb1.1,10.0,original
B1.62Er7.65Ni4.69,10.0,original
B3.4Er4.01Rh7.17Y0.77,10.0,original
As1.47Co0.66Fe2.08Sr1.46,10.0,original
Bi3.16Te7.36,10.0,original
Bi1.47F3.02La1.11S2.07,10.0,original
P1.78,10.0,original
Fe1.01Se0.11Te1.63,10.0,original
Ge0.73Ti8.52,10.0,original
Hf9.38Ta0.15V1.53,10.0,original
Hf1.9Nb0.85,10.0,original
Hf1.2V1.53Zr3.2,10.0,original
Be21.75Re1.36W0.2,10.0,original
Nb0.28Zr2.35,10.0,original
Mo0.13Re1.09,10.0,original
Al0.24In1.14La3.98,10.0,original
Nb1.04,10.0,original
Ta2.03W3.12,10.0,original
As1.47Co0.77Fe1.94Sr1.46Zn0.13,10.0,original
Cu0.11La2.33O0.48,10.0,original
C10.41Cs7.85Na7.87Rb1.36,10.0,original
Li8.12O0.48Ti8,10.0,original
Nb0.53Ti1.81,10.0,original
Re1.28,10.0,original
Ga0.32Si0.14V2.32,10.0,original
Al0.11Nb0.69,10.0,original
La0.89Mo7.34Se4.83,10.0,original
Nb0.59Ta2.03,10.0,original
B3.4Ru1.53Th12.33Y2.04,10.0,original
Ga0.15V0.56,10.0,original
Ga0.2V0.48,10.0,original
Au7.67Ga46.11Mo9.84,10.0,original
,10.0,original
Re4.4W5.25,10.0,original
Mo1.1S2.07,10.0,original
As1.47Fe2.3La1.11,10.0,original
Nb0.21,10.0,original
Cu0.13La2.26O0.48,10.0,original
C0.14Y1.8,10.0,original
Bi0.12C0.4Y3.96,10.0,original
Cu0.13La1.86Nd1.84O0.48,10.0,original
As1.47Ba0.64Fe1.89Ru0.75,10.0,original
Ba0.54Bi0.29K0.41O0.2Pb2.16,10.0,original
B4.29Nb2.24,10.0,original
Nb0.25Ti2.76,10.0,original
Nb0.28Ti0.51Zr1.77,10.0,original
Nb0.83,10.0,original
B1.62Ho9.31Ni4.79,10.0,original
B1.62Gd1.25Ni4.79Y1.68,10.0,original
P1.78Ru2.51Zr3.7,10.0,original
As0.65FeLi7.24,10.0,original
As1.47Eu5.77Fe1.02,10.0,original
H3.56Pd1.94,10.0,original
Mo1.1,10.0,original
Nb1.08,10.0,original
Ga0.29In1.14La3.98,10.0,original
Be0.92,10.0,original
Nb0.2,10.0,original
N5.82V0.73,10.0,original
Ca14.73Cu14.61O10.8Sr3.22,10.0,original
Bi1.47F2.5La1.11S2.07,10.0,original
Fe0.98Se0.11Te1.63,10.0,original
Ir0.65Rh0.79Se1.15,10.0,original
Fe1.02Se0.42,10.0,original
Nb1.09,10.0,original
Hf9.38V1.53,10.0,original
Bi2.32Cu0.13O1.03Pb1.51Sr2.87,10.0,original
Ba0.21Bi0.8K2.05O0.2Pb1.18,10.0,original
Ba1.72Cu1.39Nd3.59O1.27Pr0.17,10.0,original
Be4.89Os3.03,10.0,original
Be21.75Re1.36,10.0,original
Hf9.88V1.77,10.0,original
Zr2.93,10.0,original
B1.62Ni4.74Tm7.72,10.0,original
B1.62Er7.65Ni0.31,10.0,original
Mo7.34Pb1.83Se4.83Yb3.91,10.0,original
B1.62Er6.87Ni4.79Tb1.35,10.0,original
B1.85Nb1.1,10.0,original
Be21.75Re1.42,10.0,original
Eu4.04Mo7.78S8.78Sn0.32,10.0,original
Nb3.63Pt2.29,10.0,original
Ir0.67Nb0.41,10.0,original
Cu0.13La2.44O0.48,10.0,original
Fe0.7Se0.45Sm1.61,10.0,original
As1.47Fe2.11Ni0.18Sr1.46,10.0,original
Fe1.02Se0.46,10.0,original
As1.47Ba0.44Fe2.3K0.91,10.0,original
B1.53Mo6.09P1.96,10.0,original
Ga47.26Mo8.59V0.73,10.0,original
Hf8.88Ti0.29V1.53,10.0,original
Mo0.6Ta2.03,10.0,original
Co0.2Ga0.16Nb0.77,10.0,original
B1.92Nb1.1,10.0,original
Ga1.1V3.51,10.0,original
Hf9.78V1.53,10.0,original
Cu0.12La2.33O0.48,10.0,original
Ce0.71Cu0.13Nd9.09O0.49,10.0,original
Ge8.27Os12.44Y11.62,10.0,original
Nb2.37,10.0,original
Ti3.06Zr0.12,10.0,original
Al0.24Ge0.48Nb3.63,10.0,original
B1.62Nb0.9,10.0,original
B1.71Nb1.1,10.0,original
B0.73Mo2.1Rh0.24,10.0,original
Ca1.05Co0.18F5.12Fe0.93,10.0,original
Ir2.32Nb6.17Pt3.75,10.0,original
As0.15Ba0.64Fe2.3P2.89,10.0,original
As0.83Ba0.64Fe2.3P1.37,10.0,original
Ir0.53Rh0.91Se1.15,10.0,original
As0.65Co0.55Fe0.83Pr0.75,10.0,original
Te2.87Zr3.7,10.0,original
Nb0.29Ti2.63,10.0,original
Ta2.36Ti2.19,10.0,original
B3.4Er5.48Rh7.17Y0.32,10.0,original
B1.62Ni4.79Tb4.13Y1.32,10.0,original
B3.4Er7.41Rh7.17Tm2.27,10.0,original
Re1.14,10.0,original
B1.8Nb1.1,10.0,original
Ir3.36Nb6.17Pt2.29,10.0,original
Ba1.72Cu1.39O1.3Pr0.44Y0.61,9.0,original
Cu0.13La2.38O0.48,9.0,original
Bi3.16Ca0.3Cu0.76O1.59Sr3.22Y1.09,9.0,original
Cu0.13La2.48O0.48,9.0,original
Ce0.41Cu0.13O0.47Pr1.45,9.0,original
Cu0.13La2.18O0.48Sr0.15,9.0,original
Cu0.13La1.21O0.48Pr0.63,9.0,original
Cu0.13La1.94Nd1.34O0.48,9.0,original
Ca14.11Cu14.61O10.8Sr5.86,9.0,original
Cu0.12La2.26O0.48,9.0,original
Bi1.46K2.76O0.2,9.0,original
Bi1.62K4.86O0.2,9.0,original
Bi1.47K5.32O0.2,9.0,original
Nb1.1,9.0,original
B0.23Mo0.35P0.2,9.0,original
Ba7.93Si15.36,9.0,original
Cu0.13La1.76Nd1.84O0.48,9.0,original
As0.65Bi1.47Pb3.13Sb1.15,9.0,original
As0.65Bi1.47Pb3.13,9.0,original
Be0.55,9.0,original
Hf1.4Mo0.91,9.0,original
W2.8,9.0,original
Nb0.23Ta0.21Ti2.54,9.0,original
Zr3.31,9.0,original
Re4.4W5.25,9.0,original
Re1.18Ti0.59,9.0,original
V1.53Zr3.7,9.0,original
Nb0.78,9.0,original
Ga1.1Mn1.4V2.24,9.0,original
Mo0.6,9.0,original
Ta5.24,9.0,original
Al0.98Nb3.1Ti1.68,9.0,original
C10.41H9.25K10.77N4.93Na3.91,9.0,original
Na1.25O0.75V1.53,9.0,original
B1.97La0.97Pt4.96,9.0,original
B3.4Lu3.29Ru1.53Th12.33,9.0,original
B0.73Rh7.17Si0.58Y2.04,9.0,original
Ga0.12V0.5,9.0,original
Cu0.76Mo7.34S6.54,9.0,original
Nb3.63Si0.25,9.0,original
La1.11Os6.17,9.0,original
Ta4.17,9.0,original
W4.71,9.0,original
Ga5.72Pu33.39Rh1.7,9.0,original
Ge0.73Ru2.65Zr3.7,9.0,original
As0.65Fe1.02Na3.91,9.0,original
S0.95,9.0,original
B1.62Dy4.13Ni4.79Tm4.61,9.0,original
Al2.03Mo3.59,9.0,original
As0.65Co0.32F0.46Fe0.89Nd4.84,9.0,original
Cu0.13La2.12O0.48Sr0.22,9.0,original
As0.65Fe0.95Sm6.8,9.0,original
Fe1.02Se0.54,9.0,original
Ba1.72Cu1.39O1.3Tm7.72,90.0,original
Ba1.72Cd1.13Cu1.39O1.31Y1.8,90.0,original
Ba1.72Cu1.39O1.31Y2.01,90.0,original
Ba1.72Cu1.39O1.26Y2.04,90.0,original
Ba1.72Cu1.39Lu0.58O1.3Yb7.91,90.0,original
Bi3.16Ca0.8Cu0.76O1.59Sr3.57,90.0,original
Ba1.72Cu1.38O1.24Y2.04Zr0.62,90.0,original
Bi3.16Ca0.8Cu0.76Gd1.7O1.66Sr3.22,90.0,original
Ba1.51Cu1.39O1.44Y2.04,90.0,original
Ba1.51Cu1.39O1.53Y2.04,90.0,original
Ba1.67Cu1.39O1.28Sm7.15,90.0,original
Bi3.16Ca0.8Cu0.76Nd0.84O1.66Sr3.22,90.0,original
Ba1.72Cu1.39Lu2.78O1.31,90.0,original
Ba1.72Cu1.39Lu1.25O1.29Yb5.91,90.0,original
Bi3.16Ca0.8Cu0.76O1.59Sr3.22Y0.13,90.0,original
Ba1.45Cu1.39O1.29Sr0.14Y2.04,90.0,original
Ba1.51Cu1.39O1.47Y2.04,90.0,original
Ba1.72Cu1.39La1.11O1.31,90.0,original
Ba1.72Cu2.02O1.59Y1.8,90.0,original
Ba1.72Cu1.39O1.32Y2.04,90.0,original
Ba1.72Cu1.39F0.67O1.23Y2.04,90.0,original
Ba1.72Cu1.39O1.31Y2,90.0,original
Ba1.72Cu1.39O1.3Yb9.86,90.0,original
Ba1.72Cu1.39O1.29Yb9.91,90.0,original
Ba1.57Cu1.39O1.31Y2.04,90.0,original
Bi3.16Ca0.74Cu0.76O1.59Sr3.22Y0.25,90.0,original
Ba1.7Cu1.42Gd8.95O1.31,90.0,original
Ba1.72Cu1.39K0.14O1.2Y1.92,90.0,original
Ba1.72Cu1.36O1.31Y2.04,90.0,original
Bi3.16Ca1.05Cu0.76Dy2.02O1.66Sr2.87,90.0,original
Ba1.72Cu1.39Li0.49O1.31Y2.04,90.0,original
Ba1.72Cu1.38O1.28Y2.04,90.0,original
Ba1.72Cu1.39O1.24Y2.04,90.0,original
Bi3.16Ca1.3Cu0.76O1.66Sr2.52Y0.13,90.0,original
Al0.14Ba1.72Cu1.27O1.28Y1.56,90.0,original
Ba1.72Cu1.39O1.28Yb9.41,90.0,original
Ba1.72O1.31Y2.04,90.0,original
Ba1.51Cu1.39O1.41Y2.04,90.0,original
Ba1.51Cu1.39O1.52Y2.04,90.0,original
Ba1.72Cu0.13Hg7.24O0.51,90.0,original
Bi3.16Ca1.05Cu0.76O1.67Sr3.22,90.0,original
Ba1.72Cu1.39O1.38Y2.04,89.0,original
Ba1.72Cu1.39O1.39Y2.04,89.0,original
Ba1.72Cu1.38O1.29Y2.04,89.0,original
Ba1.72Cu1.39O1.19Y2.04,89.0,original
Ba1.72Cu1.39O1.3Y2.04,89.0,original
Ba1.61Cu1.39O1.28Y2.04,89.0,original
Ba1.72Cu1.39O1.31Y2.04,89.0,original
Ba1.72Cu1.39O1.27Y1.8,89.0,original
Ba1.72Cu2.02O1.59Y1.88,89.0,original
Ba1.72Cu1.39O1.27Y2.04,89.0,original
Bi3.16Ca0.8Cu0.76O1.66Sr3.22,89.0,original
Ba3.88Cu3.91O3.57Y4.44,89.0,original
Ba1.72Cu1.39O1.3Tm7.72,89.0,original
Ba1.72Cu1.39O1.03S0.95Y2.04,89.0,original
Ba1.72Cu2.02O1.59Y1.8,89.0,original
Bi3.16Ca0.92Cu0.76O1.65Sr3.22,89.0,original
Ba1.72Cu1.39O1.28Y2.04,89.0,original
Ba1.72Cu0.13Hg6.51O0.53W0.46,89.0,original
Ba1.72Cu0.13Hg7.24O0.51,89.0,original
Ba1.18Cu1.39Gd8.95O1.29Sr0.58,89.0,original
Bi3.16Ca1.05Cu0.76O1.66Sr3.22,89.0,original
Ba1.72Cu1.39Nd4.84O1.3,89.0,original
Ca3.41Cu2.02Ge0.15O2.46Sr3.22,89.0,original
Ba1.51Cu1.39O1.31Y2.04,89.0,original
Ba1.72Cu1.39O1.37Y2.04,89.0,original
Ba1.72Cu1.39O1.3Yb9.16,89.0,original
Ba3.88Cu3.91Er15.39O3.52,89.0,original
Ba1.18Cu1.39O1.3Sr0.58Y2.04,89.0,original
Bi3.16Ca1.05Cu0.76O1.59Sr3.22,89.0,original
Ba1.51Cu1.39O1.32Y2.04,89.0,original
Ba1.61Co0.32Cu1.33O1.32Y2.04,89.0,original
Bi3.16Ca1.05Cu0.76O1.65Sr3.22,89.0,original
Ba1.72Cu0.13Hg7.24O0.49,89.0,original
Bi3.16Ca1.42Cu0.76O1.66Sr2.52,89.0,original
Ba1.61Cu1.39O1.19Sc0.44Y2.04,89.0,original
Ba1.72Cu1.39Li0.63O1.31Y2.04,89.0,original
Ba1.72Cu1.39O1.22Y2.04,89.0,original
Bi3.16Ca1.05Cu0.76Gd1.7O1.66Sr2.87,89.0,original
Bi3.16Ca1.05Cu0.76Eu1.27O1.66Sr2.87,89.0,original
Bi3.16Ca0.8Cu0.76Nd0.84O1.66Sr3.22,89.0,original
Ba1.51Cu1.39O1.21Sc0.94Y2.04,89.0,original
Ba1.72Cu1.36O1.28Y2.04,89.0,original
Ba1.72Cu1.39Dy10.45O1.3,89.0,original
Ba1.72Ca0.18Cu1.39O1.28Y1.32,89.0,original
Bi3.16Ca1.3Cu0.76Lu0.58O1.66Sr2.52,89.0,original
Ba1.72Cu1.39O1.28Y1.8,89.0,original
Ba1.61Cu1.39O1.31Y2.04,89.0,original
Ba1.29Cu1.39O1.26Sr0.4Y2.04,89.0,original
Ba1.67Cu1.39O1.31Sm7.15,89.0,original
Ba1.72Cu1.37O1.3Y2.04,89.0,original
Ba1.72Cu1.39O1.3Yb8.91,89.0,original
Ba1.72Cu2.02O1.59Y1.76,89.0,original
Ba1.72Cu1.39O1.3Yb9.91,89.0,original
Bi3.16Ca1.3Cu0.76O1.66Sr2.52Yb1.91,89.0,original
Ba1.72Cu1.39O1.26Y2.04,89.0,original
Al0.19Ba1.72Ca0.12Cu1.24O1.27Y1.44,89.0,original
Ba1.72Cu1.39O1.3Y1.92,89.0,original
Ba1.72Cu1.39O1.31Sm6.8,89.0,original
Ba1.72Cu1.39O1.29Sm6.8,89.0,original
Ba1.72Cu1.39O1.3Y1.8,89.0,original
Ba1.72Cu1.39O1.25Y2.04,89.0,original
Ba1.51Cu1.39O1.49Y2.04,89.0,original
Ba1.72Cu1.36O1.31Y2.04,88.0,original
Ba1.72Cu1.39O1.28Y2.04,88.0,original
Ba1.72Cu1.39Nd4.84O1.31,88.0,original
Bi3.16Ca1.05Cu0.76O1.59Sr3.22,88.0,original
Bi3.16Ca1.05Cu0.76O1.64Sr3.22,88.0,original
Ba1.72Cu1.39O1.31Y2.04,88.0,original
Ba1.72Cu1.39Eu6.81O1.28,88.0,original
Ba3.88Cu3.91O3.54Y4.44,88.0,original
Ba1.72Cd2.91Cu0.13O1.03Tl7.82,88.0,original
Bi3.16Ca1.3Cu0.76Dy2.02O1.66Sr2.52,88.0,original
Ca4.78Cu2.65Pr0.75Sr3.22Tl8.96,88.0,original
Ba1.72Cu1.39O1.29Yb8.91,88.0,original
Ba1.72Cu1.39Er7.65O1.29,88.0,original
Ba1.72Cu0.13O1.03Tl8.96,88.0,original
Ba1.72Cu1.39O1.25Y1.92,88.0,original
Bi3.16Ca1.05Cu0.76O1.66Sr3.22,88.0,original
Ba3.88Cu3.91O3.47Tm15.5,88.0,original
Ba1.72Cu1.36O1.3Y1.92,88.0,original
Ba1.72Co0.32Cu1.33O1.3Y1.8,88.0,original
Ba1.72Cu1.39O1.3Y2.04,88.0,original
Ca1.05Cu0.76O1.31Pr0.36Sr2.34Tl4.41,88.0,original
Ca1.05Cu0.76Nd2.34O1.31Sr2.34Tl4.41,88.0,original
Ca1.05Cu0.76Eu3.35O1.31Sr2.34Tl4.41,88.0,original
Ba1.72Cu1.39H0.22O1.31Y2.04,88.0,original
Ba1.72Cu1.36O1.23Y2.04,88.0,original
Ba1.72Cu1.39O1.26Y2.04,88.0,original
Ba1.72Cu1.38Dy10.45O1.28,88.0,original
Ba1.72Cu0.13Hg7.24O0.52,88.0,original
Ba1.72Cu0.13Hg7.24O0.55,88.0,original
Ba1.72Cu1.39O1.3Yb9.91,88.0,original
Ba1.72Cu0.13F5.12Hg7.24O0.48,88.0,original
Ba1.72Cu1.39O1.3Y1.92,88.0,original
Ba1.72Cu1.37Er7.65O1.3,88.0,original
Ba1.72Cu1.36O1.3Y2.04,88.0,original
Bi3.16Ca0.74Cu0.76O1.59Pr0.17Sr3.22,88.0,original
Ba1.72Cu1.39O1.29Y2.04,88.0,original
Cu0.13O0.31Sr2.66,88.0,original
Bi3.16Ca0.8Cu0.76O1.66Sr3.22,88.0,original
Ba1.72Cu1.39O1.3Tm6.94,88.0,original
Ba1.51Cu1.39O1.49Y2.04,88.0,original
Ba1.72Cu1.39O1.27Y2.04,88.0,original
Ba1.72Cu1.39O1.31Yb9.91,88.0,original
Ba1.72Cu1.39O1.25Sm6.8,88.0,original
Ba1.72Cu0.13O1.07Tl8.96,88.0,original
Bi3.16Ca1.05Cu0.76O1.67Sr2.87,88.0,original
Bi3.16Ca0.8Cu0.76O1.65Sr3.22Y0.13,88.0,original
Ba1.72Cu2.02O1.59Y1.68,88.0,original
Bi3.16Ca1.05Cu0.76Nd0.84O1.66Sr2.87,88.0,original
Ba1.72Cu1.28O1.28Y2.04,88.0,original
Ba1.18Cu1.39O1.3Sr0.58Y2.04,88.0,original
Ba1.61Cu1.39Nd5.34O1.3,88.0,original
Ba0.64Cu0.13Hg5.48O0.62Tl3.32,88.0,original
Ba1.72Cu1.36O1.28Y2.04,88.0,original
Ba1.72Cu1.27O1.31Y2.04,88.0,original
Bi3.16Ca1.05Cu0.76O1.67Sr3.22,88.0,original
Ba1.72Cu1.38O1.3Y2.04,88.0,original
Ba1.72Cu2.02O1.59Y1.92,88.0,original
Ba1.72Cu0.13Hg6.51O0.57,88.0,original
Ba1.72Cu1.39O1.27Tm7.72,88.0,original
Ba1.72Cu2.02O1.59Y2,88.0,original
Bi3.16Ca1.3Cu0.76Gd1.7O1.66Sr2.52,88.0,original
Bi3.16Ca1.3Cu0.76Eu1.27O1.66Sr2.52,88.0,original
Ba1.69Cu1.43Dy10.45O1.31,88.0,original
Ba1.72Cu1.39O1.23Yb9.91,87.0,original
Bi3.16Ca1.05Cu0.76Sr3.22,87.0,original
Ba1.72Cu1.39O1.28Sm6.8,87.0,original
Ba1.72Ca1.05Cu0.76O1.59Tl8.96,87.0,original
Ba1.72Cu0.13OTl8.96,87.0,original
Ba1.72Cu2.02Ho9.87O1.59,87.0,original
Ba1.72Cu2.02Ho9.31O1.59,87.0,original
Ba1.72Cu2.02Ho8.76O1.59,87.0,original
Ba1.72Ca0.18Cu2.02Ho7.66O1.59,87.0,original
Ba1.72Cu1.36O1.31Y2.04,87.0,original
Ba1.72Cu1.39O1.31Y2.04,87.0,original
Bi2.82Ca0.8Cu0.76Nd0.84O1.65Pb0.53Sr3.22,87.0,original
Bi2.49Ca1.05Cu0.76Nd0.84O1.62Pb1.18Sr2.87,87.0,original
Bi2.49Ca0.8Cu0.76Nd0.84O1.64Pb1.18Sr3.22,87.0,original
Bi3.16Ca1.05Cu0.76O1.63Sr3.22,87.0,original
Ba3.88Cu3.91O3.55Y4.44,87.0,original
Bi3.16Ca1.05Cu0.76O1.59Sr3.22,87.0,original
Ba1.51Cu2.02O1.59Yb8.91,87.0,original
Ba1.72Cd8.25Cu1.39O1.31Y0.37,87.0,original
Ba1.72Cu1.39O1.32Sm6.8,87.0,original
Ba1.72Co0.41Cu1.32O1.25Y1.76,87.0,original
Ba1.72Cu2.02O1.59Y1.92,87.0,original
Ba1.72Cu0.13Hg7.24O0.49,87.0,original
Ba1.72Cu2.02O1.59Y2,87.0,original
Ba1.51Cu1.39O1.3Y1.8,87.0,original
Ba1.72Cu1.39O1.27Y1.56,87.0,original
Ca0.68Cu0.76O1.27Sr3.22Tl4.41Y0.37,87.0,original
Ca0.55Cu0.76O1.27Sr3.22Tl4.41Y0.61,87.0,original
Cu0.76O1.3Sr3.22Tl4.41Y1.8,87.0,original
Ba1.72Cu0.13Hg7.24O0.55,87.0,original
Ba1.72Cu1.33O1.39Y2.04,87.0,original
Ba1.72Cu1.39Lu3.29O1.31,87.0,original
Ba1.61Cu1.39O1.29Y2.04,87.0,original
Bi3.16Ca1.05Cu0.76O1.67Sr3.22,87.0,original
Bi3.16Ca0.92Cu0.76Er0.68O1.59Sr3.22,87.0,original
Ba1.72Ca1.05Cu0.76F9.3O0.53,87.0,original
Ba1.72Cu2.02O1.59Sc0.94Y1.56,87.0,original
Ba1.72Cu1.39O1.25Y2.04,87.0,original
Ba1.72Cu1.39Gd8.5Hf0.41O1.29,87.0,original
Ba1.72Cu1.39Lu2.61O1.31Pr0.13,87.0,original
Ba1.67Cu1.39Gd8.95O1.32,87.0,original
Ba1.72Cu1.39O1.26Y2.04,87.0,original
Ba1.72Cu1.39O1.3Y1.97,87.0,original
Bi3.16Ca1.05Cu0.76I0.26O1.65Sr3.22,87.0,original
Cu1.39O1.31Y2.04,87.0,original
Bi6.54Ca3.54Cu2.02O3.82Sr4.98,87.0,original
Bi3.16Ca1.05Cu0.76O1.62Sr3.22,87.0,original
Ba1.72Cu1.39H2.12O1.29Y2.04,87.0,original
Ba1.72Cu1.39O1.3Yb8.41,87.0,original
Ba1.72Cu0.13O1.03Tl8.96,87.0,original
Ba1.72Cu1.36O1.28Y2.04,87.0,original
Ba1.18Cu1.39Dy10.45O1.28Sr0.58,87.0,original
Ba1.72Cu1.39O1.29Y1.86,87.0,original
Ba1.72Cu1.39Gd6.23O1.23,87.0,original
Ba1.18Cu1.39O1.28Sr0.58Y2.04,87.0,original
Ba1.18Cu1.39O1.29Sr0.58Y2.04,87.0,original
Ba1.72Cu1.39Gd5.78Hf1.4O1.3,87.0,original
Ba1.72Cu1.34O1.31Y2.04,87.0,original
Ba1.72Cu1.36O1.3Y2.04,87.0,original
Bi6.54Ca1.67Cu2.02O3.82Sr4.98Y3.24,87.0,original
Ba1.72Ca0.92Cu0.76O1.31Tl4.41,87.0,original
Ba1.72Cu1.39Nd4.59O1.3,87.0,original
Ag0.59Ba1.71Cu1.3O1.23Y2.04,86.0,original
Bi3.16Ca0.68Cu0.76O1.68Sr3.22Y0.37,86.0,original
Ba1.08Cu1.39O1.26Sr0.75Y2.04,86.0,original
Ba0.86Cu1.39O1.26Sr1.11Y2.04,86.0,original
Ba1.72Cu2.02O1.58Y2.04,86.0,original
Ba1.72Cu1.39O1.31Y2.04,86.0,original
Ba1.72Cu1.36O1.03Y2.04,86.0,original
Ba1.72Cu1.39O1.3Y1.8,86.0,original
Bi3.16Ca1.3Cu0.76Nd0.84O1.66Sr2.52,86.0,original
Bi3.16Ca1.3Cu0.76O1.67Sr2.52,86.0,original
Bi2.82Ca1.05Cu0.76Nd0.84O1.65Pb0.53Sr2.87,86.0,original
Bi3.16Ca1.05Cu0.76Li2.83O1.56Sr2.52,86.0,original
Bi3.16Ca0.8Cu0.76O1.69Sr3.22Y0.13,86.0,original
Ba0.64Cu0.13O0.62Tl3.32,86.0,original
Ba1.29Cu2.02O1.59Sr0.4Yb8.91,86.0,original
Ba1.29Cu2.02O1.59Sr0.4Yb9.91,86.0,original
Ba1.73Cu1.46O1.31Y2.04,86.0,original
Ba1.72Ca0.1Co0.55Cu1.3O1.26Y1.47,86.0,original
Ba1.72Co0.55Cu1.3O1.27Y1.68,86.0,original
Ba1.72Co0.55Cu1.3O1.27Y1.56,86.0,original
Ba0.64Cu1.39Gd8.95O1.3Sr1.46,86.0,original
Ba1.72Cu0.13O1.03Tl8.96,86.0,original
Ba1.72Cu1.39Er7.26O1.29,86.0,original
Ba1.61Cu1.39O1.3Y1.8,86.0,original
Ba1.72Cu1.39Er7.26Hf0.41O1.3,86.0,original
Ca0.8Cu0.76F5.12Nd0.84O0.75Sr3.22,86.0,original
Bi3.16Ca1.05Cu0.76O1.66Sr3.22,86.0,original
Ba1.72Cu1.39Li2.1O1.31Y2.04,86.0,original
Ba1.72Co0.55Cu1.3O1.3Y1.68,86.0,original
Ca2.29Cu1.39O1.98Sr3.22Tl4.41,86.0,original
Ba1.18Cu1.39O1.31Sr0.58Y2.04,86.0,original
Ba0.64Cu1.33O1.36Sr1.46Y2.04,86.0,original
Ca1.05Cu0.76O1.31Sm3.34Sr2.34Tl4.41,86.0,original
Ba1.72Cu1.39H0.7O1.31Y2.04,86.0,original
Ba1.72Cu1.33Er7.65O1.25,86.0,original
Ba1.72Cu1.39O1.3Y2.04,86.0,original
Bi1.47Ca1.05Cu0.76O1.31Sr3.22Tl4.41,86.0,original
Bi3.16Ca1.05Cu0.76O1.64Sr3.22,86.0,original
Bi3.16Ca1.05Cu0.76O1.59Sr3.22,86.0,original
Ba1.72Cu1.39Lu3.29O1.31,86.0,original
Ba1.67Cu1.39O1.28Y2.04,86.0,original
Ba1.72Cu1.38O1.3Y2.04,86.0,original
Ba1.72Cu1.39Dy10.45O1.28,86.0,original
Bi3.16Ca0.92Cu0.76O1.59Sr3.22,86.0,original
Ba1.72Cu1.39La0.4O1.32Y0.85,86.0,original
Ba1.29Cu1.39Nd4.84O1.3Sr0.4,86.0,original
Ca0.8Cu0.76K1.5O1.31Sr3.22Tl3.05,86.0,original
Ba1.72Cu1.36O1.31Y2.04,86.0,original
Ba1.72Cu1.39O1.31Y1.8,86.0,original
Ba1.18Cu1.39O1.3Sr0.58Y2.04,86.0,original
Bi6.54Ca1.55Cu2.02O3.82Sr4.98Y3.48,86.0,original
Ca0.92Cu0.76F5.12Nd0.35O0.75Sr3.22,86.0,original
Ba1.72Cu1.39H2.45O1.29Y2.04,86.0,original
Ba1.72Cu2.02O1.59Y1.56,86.0,original
Ba1.29Cu2.02O1.54Sr0.4Y1.8,86.0,original
Ba0.91Cu1.39O1.29Sr1.02Y2.04,86.0,original
Ba1.72Cu1.39O1.27Y1.92,86.0,original
Ba1.72Cu1.39O1.25Y2.04,86.0,original
Ba1.72Cu1.39O1.23Y2.04,86.0,original
Ba1.61Cu2.02O1.59Y2.04,86.0,original
Ba1.72Cu1.39O1.28Y1.8,86.0,original
Ba1.72Cu2.02O1.59Y1.92,86.0,original
Ba1.08Cu1.39Dy10.45O1.29Sr0.75,86.0,original
Bi3.16Ca1.05Cu0.76O1.65Sr3.22,86.0,original
Ba1.72Cu1.39Nd4.69O1.31,86.0,original
Ba1.72Cu1.38O1.28Yb9.91,86.0,original
Al0.14Ba1.72Cu1.27O1.29Y2.04,85.0,original
Ba1.72Cu1.39Eu6.81O1.03S0.95,85.0,original
Ba1.72Cu1.36O1.32Y2.04,85.0,original
Ba1.72Cu1.39O1.3Y2.04,85.0,original
Ba1.72Cu1.39Er7.65O1.22,85.0,original
Ba1.72Cu1.33O1.34Y2.04,85.0,original
Ba1.61Cu1.39O1.27Y2.04,85.0,original