formula,Tc,type
Bi6.03Cs10.49Pb0.86Te14.85,3.0,original
Bi6.03Ce5.81Pb0.86Te14.85,3.0,original
Bi5.36Ce5.81Pb2.16Te14.85,3.0,original
Bi5.19Ce5.81Pb2.48Te14.85,3.0,original
Ba0.64Pd0.51Si0.48,3.0,original
F0.41Fe1.02Nd4.84P1.78,3.0,original
Bi3.16Nb1.1Se1.77,3.0,original
Bi20.05C0.13Pb16.11Se14.04,3.0,original
Bi1.47Ce2.81F5.12S0.95Se0.54Sr0.58,3.0,original
As0.65Ba0.64Pt2.29,3.0,original
O0.2Rb1.82W5.25,3.0,original
Co4.41Sc0.56Zr7.07,3.0,original
Ir5.11Lu3.29,3.0,original
Hf7.89,3.0,original
Ge1.57Pd3.78Pt0.1Sr1.46,3.0,original
As0.65F0.46Fe1.02La1.11,3.0,original
As3.12Ba1.72Fe2.15Ti8.52,3.0,original
Pd0.3Zr2.95,3.0,original
Ba0.64S5.42Ta10.6,3.0,original
Mn14.15U21.67,3.0,original
Pt2.29V2.32,3.0,original
V0.72,3.0,original
Ir2.67Ru0.97Th3.56,3.0,original
Ir0.93Ru3.77Th3.56,3.0,original
Ir0.58Ru4.33Th3.56,3.0,original
Ga1.1Ni4.79Zr3.7,3.0,original
Ni4.79P3.64Sr1.11,3.0,original
Co18.05La3.98Sn11.37,3.0,original
Bi3.16La1.11Pd1.53,3.0,original
Dy31.51Ge8.27Os12.44Y4.44,3.0,original
Rh0.5Zr2.38,3.0,original
Nb0.47Os1.46,3.0,original
Nb1.1Os3.03,3.0,original
Fe0.38Mn7.05U21.67,3.0,original
Cu0.13Rh3.34Se2.38,3.0,original
Hf9.88In1.68Pd3.98,3.0,original
B0.72Li14.58Pt7.15,3.0,original
Ir1.59Te4.87,3.0,original
S3.35Sn0.91Ta5.24,3.0,original
Nb1.1S3.19Sn0.78,3.0,original
Sb0.78Sn0.16,3.0,original
Br2.73C0.24Cl14.38Y4.44,3.0,original
Ta4.81W0.36,3.0,original
In3.49Mo7.34Se3.61,3.0,original
Ge10.78Ru11.04Y6.83,3.0,original
Bi1.47La0.9S2.07Th0.46,3.0,original
Bi1.47Ce5.81F1.98S2.07,3.0,original
Pb0.47Sn0.55Te2.37,3.0,original
Ir1.62Te4.87,3.0,original
Pd0.31Zr2.91,3.0,original
Bi1.47Zr11.4,3.0,original
W3.12,3.0,original
Si0.58W15.87,3.0,original
Ir6.85Lu15.14Si3.27Tm3.83,3.0,original
Ti4.05,3.0,original
Nb2.38Sb1.15Ti4.15,3.0,original
Ba0.64Ge0.23Ni4.79P2.89,3.0,original
Pb0.48Sn0.54Te2.37,3.0,original
Ni4.79P3.64Sr0.75,3.0,original
Ni4.79Se1.03Tl4.41,3.0,original
Mg2.51Ni7.28Zn0.38,3.0,original
Pd3.98Sn0.78Tm7.72,3.0,original
C0.24Y1.56,3.0,original
B1.62La1.11Rh5.35,3.0,original
Co8.86Cu0.13S4.3,3.0,original
B3.4Dy10.45Ir1.97Rh4.98,3.0,original
La1.11Ni0.31Pt1.8Si0.25,3.0,original
Ge1.57Pd3.96Sr1.46,3.0,original
Ir0.63Rh0.82Te4.87,3.0,original
Ce0.41Ir5.11La0.97,3.0,original
H0.37Ta4.6,3.0,original
Pb0.35Sn0.61Te2.37,3.0,original
Bi1.47Ce2.81F5.12S2.07Sr0.58,3.0,original
Cu0.12La2.33O0.48,3.0,original
Cu0.13La2.46O0.48,3.0,original
Co4.41H9.43Na1.45O0.28,3.0,original
Dy1.5Pd3.98Sn0.78Y1.68,3.0,original
Pb3.13Pd3.98Yb9.91,3.0,original
Mo2.35,3.0,original
Al0.93Ba0.64Si0.27,3.0,original
Cd11.81Ni7.28,3.0,original
Cs5.21Nb1.1S2.07,3.0,original
Be0.74Zr0.57,3.0,original
In1.87Te2.37,3.0,original
Al0.98Sb1.15,3.0,original
Mo1.1,3.0,original
O0.2W5.25,3.0,original
Mo1.01Pt0.27,3.0,original
Nb0.97,3.0,original
Nb0.97Ru0.13,3.0,original
Pb2.48Pt0.34,3.0,original
Sn0.11Ta1.22V0.34,3.0,original
Ta1.22V0.54,3.0,original
B0.73Zr3.7,3.0,original
B0.73Re2.92,3.0,original
Pb12.86Pt2.29,3.0,original
Sn0.78Ta5.24V1.53,3.0,original
Nb3.63Pt0.1Rh1.52,3.0,original
La1.11Ru11.04Sb14.68,3.0,original
Mo7.34S8.78Zn2.02,3.0,original
Ir3.36S4.3Zn0.68,3.0,original
Ca1.05Pb3.78Tl8.05,3.0,original
Ba8.19Ge17.48Si8.31,3.0,original
Ti3.88,3.0,original
H2.82Pd1.91,3.0,original
Mg3.17Ni6.54Ru0.69,3.0,original
Ta5.24V1.53,3.0,original
Co18.05Ge10.78La3.98,3.0,original
B2.51Ru19.44,3.0,original
Nb7.43Sn4.31,3.0,original
La2.25O0.48,3.0,original
As1.47Ir3.36Sr1.46,3.0,original
As1.47Ni4.79O1.03Sc9.97Sr6.74,3.0,original
Ni0.56Si0.48Sr1.46,3.0,original
Lu3.29Pd3.98Sn0.78,3.0,original
Ir5.11Lu6.54Sc0.14Si1.59,3.0,original
Bi1.47F5.12La0.4S2.07Sr0.58,3.0,original
La1.11Pd1.12,3.0,original
Bi5.02Ce5.81Pb2.81Te14.85,3.0,original
Ho10.97Pd0.71Te7.36,3.0,original
Ir1.62Te4.37,3.0,original
K3.14Mo1.1S2.07,3.0,original
Rh3.52Zr15.26,3.0,original
Ge1.99Pt1.07Zr19.11,3.0,original
Bi0.46Pb5.08Pd1.94,3.0,original
K5.32Mo18.58Se11.58,3.0,original
Nb3.63Rh1.7,3.0,original
Hf8.23W0.81,3.0,original
Ge8.27Lu16.84Rh7.17,3.0,original
Al0.98La3.98,3.0,original
Fe3.58Lu0.58Si1.59Tm6.16,3.0,original
C0.24La1.04Ni2.3,3.0,original
Ag1.61Ba0.64Si0.45,3.0,original
Ce4.61Ir5.11,3.0,original
Ni0.45Ti1.3Zr1.42,3.0,original
Ag4.11Bi1.47,3.0,original
B1.62Pt7.15Sr0.88,3.0,original
Ta4.76W0.41,3.0,original
Au0.85Zr3.24,3.0,original
Au0.69Zr3.31,3.0,original
Fe3.58Lu6.67Si1.59,3.0,original
Bi3.16Pd1.94,3.0,original
La1.11Ni0.56Pt1.56Si0.25,3.0,original
Ir3.36Si0.58Y2.04,3.0,original
Er3Pd3.98Sn0.78Y1.09,3.0,original
Ni2.3Zr7.55,3.0,original
Hf7.69W1.1,3.0,original
Ta4.97,3.0,original
Pb0.5Sn0.57Te2.37,3.0,original
P1.78W15.87,3.0,original
InTl1.6,3.0,original
La1.04Pt2.29Si0.25,3.0,original
Ge8.27Ir6.85Y11.62,3.0,original
Ge1.56Pd3.98Sr1.46,3.0,original
Nb2.37Pd1.94S4.3Se0.54,3.0,original
Ba0.1Ni4.79P3.64Sr0.58,3.0,original
Ge3.25La3.98Pd8.06,3.0,original
Bi6.54Rh1.7,3.0,original
Nb1.1S3.38Sn0.93,3.0,original
S1.84Ta5.24,3.0,original
Mg1.43Tl2.28,3.0,original
S5.42Sr1.46Ta10.6,3.0,original
Dy0.97Fe3.58Si1.59Y4.2,3.0,original
Si0.55Th3.56,3.0,original
Eu6.81,3.0,original
Fe1.02S0.39Se0.23,3.0,original
Ru5.45Y2.04,3.0,original
Cr0.35Re0.33,3.0,original
W10.56,3.0,original
Al0.94,3.0,original
Er3.78Ir6.85Lu15.14Si3.27,3.0,original
Ce3.47Ir5.11La0.24,3.0,original
B1.62Nb1.1,3.0,original
Al0.98Mo2.47Nb0.97,3.0,original
Gd0.16La1.07Ru5.45,3.0,original
Ta2.56V0.34,3.0,original
Nb1.1Pb3.58S3.34,3.0,original
Mg3.17Mo7.34S7.66,3.0,original
B3.4Rh7.17Sm6.8,3.0,original
Ge1.54Pd3.98Sr1.46,3.0,original
Eu3Ge9.94Pr0.4Pt9.58,3.0,original
Bi3.16Eu20.66F20.82S2.63Se0.85,3.0,original
Ca2.29Li4.45Nb3.63O2.15Rb5.68,3.0,original
Co4.41H9.43Na0.98O0.28,3.0,original
Gd0.39In1.68La3.9,3.0,original
Hf8.94,3.0,original
Ir1.62Se0.11Te4.12,3.0,original
Fe1.42H3.58Li4.96S0.95,3.0,original
O0.48Ru2.65Sr3.22,3.0,original
Bi1.61S5.51Ta10.6,3.0,original
C0.59K5.32Tl6.69,3.0,original
In1.59Te2.37,3.0,original
Au7.67Ge0.73,3.0,original
Bi1.14Rh0.24,3.0,original
Cu0.13Rh3.43Se2.38,3.0,original
Mn9.47Ni0.63U21.67,3.0,original
Nb0.31Rh1.02,3.0,original
Rh1.7Zr3.7,3.0,original
Ti4.02,3.0,original
Nb0.78Rh2.15,3.0,original
Au0.69Nb3.63Rh1.52,3.0,original
Ce5.81Te4.42,3.0,original
Y2.04,3.0,original
As0.65,3.0,original
Co8.05Cu0.13S4.3,3.0,original
Ti1.42V0.37,3.0,original
Ir1.62Si0.25Y2.04,3.0,original
Rh5.35Si1.59Y4.44,3.0,original
O0.2Sr1.46Ti4.19,3.0,original
Th1.01Zr2.54,3.0,original
Tc3.05Ti3.11,3.0,original
La0.83Y0.13,3.0,original
Ge1.57Re1.43,3.0,original
Tl4.14,3.0,original
Si0.92W26.5,3.0,original
Al0.18Zr1.36,3.0,original
Ge1.49Pd3.98Sr1.46,3.0,original
La1.11Pd1.94Sb2.38,3.0,original
Bi4.85Cs10.49Pb3.13Te14.85,3.0,original
Bi4.85Ce5.81Pb3.13Te14.85,3.0,original
Bi3.4F1.3S2.07,3.0,original
Ir1.57Te4.87,3.0,original
Co4.07Si0.27Th3.56,3.0,original
Bi9.92Cu0.45Pb16.11Se14.04,3.0,original
Nb1.1Os6.17,3.0,original
Bi1.47Ce2.81F5.12S1.51Se0.23Sr0.58,3.0,original
Re0.21Zr3.03,3.0,original
Hf9.88Os6.17,3.0,original
La3.38Pr0.3S4.3,3.0,original
Ir1.52Te4.87,3.0,original
Se1.15Ti4.19,3.0,original
Nb1.1Sn1.66,3.0,original
Ge2.41Pd1.73Pt0.1Y4.44,3.0,original
Au9.99In1.68Pd1.33Y2.04,3.0,original
In3.49O0.2,3.0,original
Ge9.11Pr0.75Pt9.58Sb1.15,3.0,original
Bi1.47Ce2.81Eu3.35F5.12S1.84,3.0,original
Co1.95Zr1.93,3.0,original
Ag4.11Tl4.41,3.0,original
Tl4.28,3.0,original
B3.4Ir6.15Lu3.29Rh0.6,3.0,original
Mo0.22Nb0.72,3.0,original
Cd11.81Mo6.09S6.54,3.0,original
Mo7.34S7.66Sc4.95,3.0,original
Am0.57Si0.58Th3.56,3.0,original
Nb1.1Pb3.13S3.19,3.0,original
Pb6.37Rh1.7,3.0,original
B1.62Lu3.29Os3.03,3.0,original
Mo7.34S7.66Y2.04,3.0,original
Pd69.3Se6.67,3.0,original
Pb0.65Sn0.52Te2.37,3.0,original
C0.24La1.09Ni2.3,3.0,original
Cu0.13La1.8Nd1.84O0.48,3.0,original
Co4.41H9.43Na1.29O0.28,3.0,original
Ta3.9V0.14,3.0,original
Nb1.1Ru2.65Si0.25,3.0,original
Ni2.05Zr7.55,3.0,original
Bi1.63S5.52Ta10.6,3.0,original
La1.11Pd1.94Si0.92,3.0,original
C0.24Co4.41Th3.56,3.0,original
Ni4.79S0.28Se0.91Tl4.41,3.0,original
Au7.67Be0.93,3.0,original
Sn0.76,3.0,original
Au12.32In1.68Pd0.71Y2.04,3.0,original
V0.71,3.0,original
La1.11Ni0.81Pt1.32Si0.25,3.0,original
Ge2.41Pd1.53Pt0.34Y4.44,3.0,original
Ag0.37Ge1.57Pd3.78Sr1.46,3.0,original
La0.97Ru5.45Th0.28,3.0,original
Ir3.36S4.3Zn0.79,3.0,original
Pb9.62Th2.72,3.0,original
Co8.91Cu0.13S4.3,3.0,original
Zr3.58,3.0,original
Rh10.81Sn15.78Tm31.06Y2.04,3.0,original
Ir1.45Te4.87,3.0,original
B0.55Lu3.29Ni2.3,3.0,original
Be0.77Zr0.44,3.0,original
Pd0.39Zr2.77,3.0,original
Ni0.89Zr2.03,3.0,original
In1.96Te2.37,3.0,original
Ag4.11Te7.36,3.0,original
Al2.03Th10.87,3.0,original
Au2.24Te1.54,3.0,original
La1.09,3.0,original
Ce4.61Ru5.45Tb2.74,3.0,original
Ir1.62Os3.03Y2.04,3.0,original
La1.11Rh5.35,3.0,original
Mo0.16Ru1.95,3.0,original
Ti3.93,3.0,original
Ba6.04Na5.89Si15.36,3.0,original
B0.73Lu3.29Ni1.8V0.1,3.0,original
B1.62Co1.68Lu3.29Ni4.29,3.0,original
B1.62Co0.27Er7.65Ni4.68,3.0,original
La9.72Rh5.35,3.0,original
O0.2Rb1.24W5.25,3.0,original
Ga4.56Mo1.02,3.0,original
Ge1.57Lu3.29,3.0,original
Ge8.27Ir6.85Lu16.84,3.0,original
Li14.58Mo18.58Se11.58,3.0,original
Hf8.58,3.0,original
Ir6.85La3.98Sn11.37,3.0,original
Ir6.85Sn11.37Th10.87,3.0,original
B0.73Li14.58Pt7.15,3.0,original
Os12.44Si4.28Tm31.06,3.0,original
As1.47Cs10.49Fe2.3,3.0,original
Ge4.92Pt9.58Y6.83,3.0,original
Ga1.1Ge0.73Sr1.46,3.0,original
As1.47Fe2.3Rb5.68,3.0,original
Ga1.28Si0.2Yb9.91,3.0,original
Mo7.34Se3.61Tl8.96,3.0,original
P1.78Ru2.09Zr3.7,3.0,original
Ni0.31Si0.52Sr1.46,3.0,original
La1.11Ni4.79P3.64,3.0,original
Ge1.57Pd3.69Pt0.2Sr1.46,3.0,original
Bi6.46O0.48S3.19,3.0,original
Au1.59Te1.73,3.0,original
Al0.98Ca1.05Si0.25,3.0,original
Bi1.47F2.5La1.11Se1.15,3.0,original
Ba0.64Pt0.59Si0.48,3.0,original
As0.65Fe0.98Na3.91,3.0,original
Bi1.14Pb0.53Pd1.94,3.0,original
Ge2.24Pt0.34Zr19.11,3.0,original
Bi1.47Ce2.81F5.12S1.73Se0.11Sr0.58,3.0,original
Er4.55Pd3.98Sn0.78Y0.61,3.0,original
Ba0.64Ni4.79P3.26,3.0,original
Ba0.64Bi0.8Sb1.64Ti8.52,3.0,original
Ni0.81Zr2.16,3.0,original
B0.1Ru1.81,3.0,original
Ga0.7Si0.37Sr1.46,3.0,original
La0.97Pb9.62,3.0,original
Th0.28Zr3.31,3.0,original
Co0.14Ge1.57Pd3.86Sr1.46,3.0,original
Bi3.16Eu13.73F20.82S2.07Se1.15Sr1.46,3.0,original
Pb0.51Sn0.57Te2.37,3.0,original
Pd1.94Te2.42,3.0,original
La1.03Nd0.15Pt2.29Si0.25,3.0,original
Ge3.25Rh1.7,3.0,original
Co2.14Mn7.05U21.67,3.0,original
Mn1.94Ti3.58,3.0,original
Nb3.63Pd0.1Rh1.52,3.0,original
Mo7.34Pr0.75S8.78,3.0,original
Au15.42Ce5.81Si0.58,3.0,original
Ba0.32Ni4.79P3.64Sr0.22,3.0,original
Bi1.44F2.5La1.11S2.07,3.0,original
Be21.75Mo1.1,3.0,original
Cd2.08Tl3.6,3.0,original
La1.11Pb2.32Sn1.88,3.0,original
Pd0.51Zr2.54,3.0,original
Nb3.63Rh1.66,3.0,original
Nb3.63Rh1.61,3.0,original
La1.1Tb0.1,3.0,original
Zr3.55,3.0,original
Ir1.62Ru2.65Th3.56,3.0,original
Ir1.28Ru3.21Th3.56,3.0,original
Ba0.64Si0.42,3.0,original
Ba0.48Ni4.79P3.64,3.0,original
Ir1.28Rh0.24Te4.87,3.0,original
Au0.3Nb3.63Rh1.61,3.0,original
H3Pd1.91,3.0,original
In0.6Tl2.6,3.0,original
Au0.46Zr3.43,3.0,original
Ge2.41Pd1.33Pt0.59Y4.44,3.0,original
Ag0.78Ge1.57Pd3.57Sr1.46,3.0,original
Hf6.5W1.73,3.0,original
La1.11Ru8.01Si0.58,3.0,original
Fe1.69H3.58Li3.42S0.95,3.0,original
Cu0.13La2.33O0.48,3.0,original
Cu0.11La2.19O0.48Sr0.14,3.0,original
B0.68Lu3.29Ni2.3,3.0,original
Mg2.19Ni7.28Zn0.58,3.0,original
B4.29Nb2.11V0.1,3.0,original
Cr0.38Os0.52,3.0,original
Ti3.8,3.0,original
H2.89Pd1.94,3.0,original
Hf8.88,3.0,original
In1.68Sb1.15Sn0.78,3.0,original
La0.76Y0.25,3.0,original
Mg2.84Mo6.22S6.54,3.0,original
Nb0.97Pt0.1,3.0,original
Nb0.34Ru1.53,3.0,original
Se0.54Y2.04,3.0,original
La1.11Si0.58,3.0,original
Nb0.34Re0.84,3.0,original
Co2.14Rh0.79Si0.58,3.0,original
Ti3.97,3.0,original
B1.62Dy9.39Lu0.24Ni4.79,3.0,original
Cu0.13Se1.15,3.0,original
C10.41Na7.87Rb5.68,3.0,original
C10.41K5.32Na7.87,3.0,original
Ba0.64Nb2.37Se2.99,3.0,original
Cd15.37Mo7.34Se4.53,3.0,original
Nb1.1Se1.77,3.0,original
B1.4Mg3.17,3.0,original
Co13.5Y9.22,3.0,original
Bi1.47La5.41Pb6.37,3.0,original
Co18.05Sn11.37Yb29.9,3.0,original
Os18.71Sn16.67Y9.22,3.0,original
Fe1.02P1.78Sm6.8,3.0,original
B3.4Er5.48Gd2.43Rh7.17,3.0,original
B14.08Ir32.96Mg39.31,3.0,original
Se1.15Ta5.24,3.0,original
B1.17Li7.24Rh1.7,3.0,original
B1.17Li8.71Rh1.7,3.0,original
Ir4.06Lu6.67Rh0.97Si1.59,3.0,original
As9.72Pr0.75Ru11.04,3.0,original
La1.11P1.78Rh1.7,3.0,original
Bi1.47F2.5La1.04S2.07,3.0,original
Bi1.47F2.5La1.11S1.62Se0.17,3.0,original
Mg3.17Pt2.29Si0.25,3.0,original
Bi2.32Pb1.51Pd1.94,3.0,original
Bi2.69Pb0.79Pd1.94,3.0,original
Pd0.43Zr2.7,3.0,original
Ir1.48Te4.87,3.0,original
Ba0.64Sb1.64Sn0.42Ti8.52,3.0,original
In0.16Pb1.52Sn0.19Te2.37,3.0,original
Co1.93Zr1.95,3.0,original
In0.16Sn0.64Te2.37,3.0,original
Eu6.81Pb3.13S0.95Se0.54,3.0,original
In0.69Tl2.37,3.0,original
Bi1.47La0.83S2.07Ti0.72,3.0,original
Ir3.36Lu3.29,3.0,original
Nb0.59Pd0.71,3.0,original
Bi1.47Li7.24,3.0,original
Ce3.41La0.25Ru8.24Si0.58,3.0,original
Ir5.11Th3.56,3.0,original
Ir4.23Sc4.95,3.0,original
Ge2.41Pd1.12Pt0.83Y4.44,3.0,original
Al0.7Ca1.05Si0.34,3.0,original
C1.29K5.32Tl6.69,3.0,original
Cu0.1Se1.15,3.0,original
Nb0.32Re0.87,3.0,original
La3.98Te9.86,3.0,original
Fe0.38Ni1.06Zr7.55,3.0,original
Pd1.94Te2.47,3.0,original
Ba0.64Ge0.4Ni4.79P2.52,3.0,original
As0.65Pt2.29Sr1.46,3.0,original
Bi1.47F3.02La1.11S2.07,3.0,original
Ce0.71La0.9Ru5.45,3.0,original
Rh0.57Zr2.23,3.0,original
Ni0.83Zr2.12,3.0,original
Ni0.99Zr1.88,3.0,original
Nb3.63Rh1.52Ru0.13,3.0,original
Fe3.58Lu0.44Si1.59Tm6.47,3.0,original
Co4.41U21.67,3.0,original
Pd3.98Sn0.78Yb9.91,3.0,original
Ge2.41Pd0.92Pt1.07Y4.44,3.0,original
Tl4.39,3.0,original
Gd0.34Pd3.98Sn0.78Y1.92,3.0,original
Si0.58Th3.56,3.0,original
Si0.25Th3.56,3.0,original
Ir3.36S4.3Zn0.89,3.0,original
Co15.77La3.98Ru1.25Sn11.37,3.0,original
B0.82Lu3.29Ni2.3,3.0,original
Mo1.1S2.07Yb1.91,3.0,original
Pb3.13Pd3.98Sc4.95,3.0,original
Lu3.29Pb3.13Pd3.98,3.0,original
Ge1.25Y2.04,3.0,original
Ir2.49Y2.04,3.0,original
Mn0.67Ti3.8,3.0,original
Re0.17W4.45,3.0,original
Ru5.45Zr3.7,3.0,original
Tl4.41,3.0,original
Ir0.53Nb0.63,3.0,original
Ir2.49Os1.46Y2.04,3.0,original
Ag4.11In3.49,3.0,original
Ir0.75Os1.46,3.0,original
C0.24Ca0.18Y1.32,3.0,original
B1.62Co0.12Ho10.97Ni4.72,3.0,original
Fe3.58Si1.59Y4.44,3.0,original
La3.98Ni2.3,3.0,original
Cd11.81Mo7.34Se4.83,3.0,original
Mo7.34S8.78Sm8.19,3.0,original
Ga9.18La18.32Sb25.75,3.0,original
Al0.98La1.11Rh1.7,3.0,original
Ce5.81Ru5.31,3.0,original
La3.13Pr0.43Tl4.41,3.0,original
Ti4.15,3.0,original
B1.62C0.24Lu3.29,3.0,original
I30.82Mo7.34Te12.35,3.0,original
Bi2.32La5.41Pb4.75,3.0,original
Lu3.29Ru5.45Si0.58,3.0,original
Ba0.64Ga1.1Ge0.73,3.0,original
Ga1.1Ni4.79Zr3.12,3.0,original
Ga1.22Si0.22Yb9.91,3.0,original
Al0.28Co1.25Zr1.24,3.0,original
Bi9.92O1.59S5.42,3.0,original
As1.47Ba0.64Ir3.36,3.0,original
Pd1.94Te4.87,3.0,original
Cr0.36Ru0.55,3.0,original
Bi1.47Ce2.81Pr0.36S2.07,3.0,original
Bi1.47Sb1.15Se0.54Te4.87,3.0,original
As1.47Ba0.64Fe2.24,3.0,original
Ir1.36Rh0.15Te4.87,3.0,original
Bi3.16Eu20.66F20.82S3.19Se0.54,3.0,original
Au1.47Sn0.6,3.0,original
Be0.83,3.0,original
Pt2.29Sn3.43,3.0,original
Hf8.97W0.42,3.0,original
Si0.57Th3.56,3.0,original
Mo3.59Sb8.53,3.0,original
Bi1.47La1.11Rh1.7,3.0,original
Pd1.94Zr7.55,3.0,original
In0.16Sn0.6Te2.37,3.0,original
V0.67,3.0,original
Ti2.44V0.14,3.0,original
Ir2.15Os2.09Th3.56,3.0,original
Bi1.64Nb1.1Se1.83,3.0,original
Bi1.47Hf1.9La0.83S2.07,3.0,original
Ru5.45Sc4.95,3.0,original
C0.24La1.07Ni2.3,3.0,original
Ge2.41Y2.04,3.0,original
Rh0.6Ta3.1,3.0,original
Rh3.52Ta15.96,3.0,original
La6.85Ru5.45,3.0,original
As1.47Ba0.64Fe2.22,3.0,original
Bi1.47Ce1.01F1.45Nd3.84S2.07,3.0,original
Ir1.62Se0.23Te3.62,3.0,original
Bi3.16Te7.36Tl2.6,3.0,original
Bi3.16Eu13.73F20.82S2.63Se0.85Sr1.46,3.0,original
Pd0.46Zr2.63,3.0,original
Hf9.48,3.0,original
As1.47Fe2.02Ni0.36Sr1.46,3.0,original
B3.4Er7.65Ir6.85,3.0,original
F0.41Fe1.02P1.78Pr0.75,3.0,original
Mn0.31Ti4.08,3.0,original
Ir5.11La9.72,3.0,original
Ce5.81Co4.41In8.92,3.0,original
Ag3.86Tl0.14,3.0,original
Ba0.64Hg7.24,3.0,original
In0.16Sn0.56Te2.37,3.0,original
La1.11Rh1.7Si0.92,3.0,original
O1.31Ti17.19,3.0,original
Ni1.08Zr1.74,3.0,original
B0.73Li14.58Pd1.73Pt4.96,3.0,original
Ni1.93Zr7.55,3.0,original
Nb3.63Se2.38,3.0,original
Ba0.64Sb1.88Sn0.25Ti8.52,3.0,original
As0.48Fe1.02La1.11P0.29,3.0,original
C0.41Na3.91,3.0,original
Ca1.05Si0.47,3.0,original
Pb3.13Pd3.98Y2.04,3.0,original
Nb2.37Se1.77,3.0,original
Rh10.81Sn16.67Tm31.06,3.0,original
Be1.92Nb3.63,3.0,original
Be4.89Pt2.29,3.0,original
Cd1.96Tl3.64,3.0,original
Ga3.41Lu3.29,3.0,original
Ir0.34Zr2.35,3.0,original
N4.34V0.73,3.0,original
Pd10.1Se1.15,3.0,original
Ta0.15Ti3.8,3.0,original
Pd1.94Te2.37,3.0,original
Nb3.63Os0.21Rh1.52,3.0,original
Ir0.34Ti2.67,3.0,original
Pd5.61Se0.54,3.0,original
Co8.05Cu0.26S4.3,3.0,original
Hf9.88Rh1.7Si0.25,3.0,original
B3.4Pr0.75Ru1.53Th12.33,3.0,original
Ge10.78Lu10.06Ru11.04,3.0,original
C0.24Cl16.44Y4.44,3.0,original
Co6.68Cu0.45S4.3,3.0,original
Ta10.6Zr3.7,3.0,original
Se1.77Ta5.24,3.0,original
Bi3.16La5.41Pb3.13,3.0,original
Ge10.78Lu10.06Rh7.17,3.0,original
Ge1.57Ta5.24,3.0,original
Ir1.62La1.11Si0.25,3.0,original
Au7.67In1.68Pd1.94Y2.04,3.0,original
Ga1.1Nb0.21Ni4.79Zr2.54,3.0,original
B1.62Dy8.87Ni4.79Tm1.1,3.0,original
Pb3.65Se3.09Ti8.52,3.0,original
Ca1.05Pt2.29Si0.92,3.0,original
Si0.55Sr1.46,3.0,original
Sb3.61Zr19.11,3.0,original
Au7.67Te4.87,3.0,original
Se1.15Ta0.69Ti3.54,3.0,original
Bi1.47Ce2.81Eu3.35F5.12S2.07,3.0,original
Ni4.79S2.07Tl4.41,3.0,original
Bi1.47Ce5.81F2.24S2.07,3.0,original
As1.47Cd11.81Sn0.78,3.0,original
Pd3.98Sc4.95Sn0.78,3.0,original
La1.01Nd0.2Pt2.29Si0.25,3.0,original
Cr0.15Re0.94,3.0,original
C0.24La0.97Ni2.3,3.0,original
Ag0.78Sn0.6Te2.37,3.0,original
Se1.15Ta0.96Ti3.32,3.0,original
La1.11Ni1.06Pt1.07Si0.25,3.0,original
V0.62,3.0,original
Ba8.19Ge19.15Si7.63,3.0,original
Rh1.48Ru0.18Se1.15,3.0,original
Pb0.81Sn0.48Te2.37,3.0,original
Co10.23Fe0.66Th25.48,3.0,original
Pd1.94Si0.67Y4.44,3.0,original
Gd0.25La1.06Ru5.45,3.0,original
Au13.87In1.68Pd0.31Y2.04,3.0,original
Sn0.13,3.0,original
Ag4.11Th7.22,3.0,original
Nb0.91Pd0.2,3.0,original
Ge2.41Pd0.51Pt1.56Y4.44,3.0,original
Ce5.81In8.92Rh1.7,3.0,original
Bi1.47Na3.91,3.0,original
Bi0.75Sn0.27,3.0,original
Bi3.16Y6.83,3.0,original
Ir0.47Nb0.67,3.0,original
Pd3.47Te4.87,3.0,original
B1.62Ho9.87Ni4.79,3.0,original
La8.28Ni4.79Sn0.78,3.0,original
Os5.85Th3.56,3.0,original
Ga10.33Ir3.36,3.0,original
Rh10.81Sn15.78Tm38.84,3.0,original
Bi1.47Ce5.81F1.61S2.07,3.0,original
Ce5.81Co3.96In8.92Ru0.13,3.0,original
Pb0.52Sn0.58Te2.37,3.0,original
Ag8.28Pd6.02S0.95,3.0,original
Pd0.48Zr2.59,3.0,original
Ge1.57La1.11,3.0,original
Ge1.57Pd1.94Si0.25Y4.44,3.0,original
Re1.18Ru0.32,3.0,original
In0.16Sn0.52Te2.37,3.0,original
Ce5.81Co4.41In8.91,3.0,original
Nb2.37Pd1.94S4.02Se0.69,3.0,original
Lu3.29Ru5.45,3.0,original
Se1.15Ta0.42Ti3.76,3.0,original
B1.62Os3.03Y2.04,3.0,original
Bi1.47La0.68S2.07Ti1.16,3.0,original
Ir3.36Si0.58Th3.56,3.0,original
Te7.36Tl22.6,3.0,original
Pd2.96Te4.87,3.0,original
Am59.14,3.0,original
Co4.41H9.43Na1.25O0.28,3.0,original
Bi3.16Rh1.7,3.0,original
H5.78Hf9.88V1.53,3.0,original
Au3.09Ge0.39,3.0,original
Bi1.47Cu0.13,3.0,original
Bi1.47Re2.92,3.0,original
Co4.05Mn1.09U21.67,3.0,original
In1.68Te2.37,3.0,original
La0.47Lu1.42,3.0,original
Li2.1O0.2W5.25,3.0,original
Os0.37W4.45,3.0,original
Pd1.26Se0.13,3.0,original
Pd2.45Te4.87,3.0,original
Nb3.63Sb1.15,3.0,original
Pd3.98Se0.54,3.0,original
Re35.59Sc25.01,3.0,original
Ir3.36S4.3Zn0.99,3.0,original
Cu0.13S1.84,3.0,original
Er9.2Mo7.34S8.78,3.0,original
Pd1.94Si0.58Y4.44,3.0,original
Co5.55Cu0.61S4.3,3.0,original
Gd0.62Ru5.45Y1.85,3.0,original
Ir0.58Nb0.59,3.0,original
Se1.15W5.25Yb1.91,3.0,original
Lu3.29Mo7.34S8.78,3.0,original
Nb0.89Pd0.24,3.0,original
La0.89,3.0,original
Ge1.57Hf9.88,3.0,original
La3.98Pb42.06Rh7.17,3.0,original
Ir10.33Sn16.67Y9.22,3.0,original
Ir1.62La1.11Si0.92,3.0,original
La3.98Ni9.77P7.36,3.0,original
B3.4Ho10.97Ir4.06Rh2.79,3.0,original
Al3.08Pd3.98Y2.04,3.0,original
Pd34.6Se9.13,3.0,original
Li6.5Mo7.34O4.1,3.0,original
Ba0.64Sb2.13Ti8.52,3.0,original
Ba0.64Sb2.01Sn0.16Ti8.52,3.0,original