formula,Tc
Eu1Fe2As1.68P0.32,6.5
Fe2As2Sr4Sc1.5Ti1.5O8,6.5
Ca0.5Na0.5Fe2As2,6.5
Ca0.67Sr0.33Fe2As2,6.5
K0.8Fe1.996Co0.004Se2,6.5
Ba0.8K0.2Fe2As2,6.5
Na1Fe0.97Co0.03As1,6.5
Pr0.65Sr0.35Fe1As0.8Sb0.2O1,6.5
Pr0.6Sr0.4Fe1As0.9Sb0.1O1,6.5
Fe1Sr2Eu1Cu2O7.51,6.5
Ca1Fe0.9Co0.1As1F1,6.5
Ca0.78La0.22Fe1As2,6.5
Ba1Fe1.84Co0.16As2,6.49
Rb0.75Fe1.6Se1S1,6.49
Ca0.76Ce0.24Fe1As2,6.48
Ba1Fe1.86Co0.14As2,6.48
La1.85Sr0.15Cu98Ni0.02O4,6.47
Y1Ba2Cu3O6.29,6.47
Ca0.4Nd0.6Ba1La1Cu3O7.19,6.47
Sm1.85Ce0.15Cu1O4,6.46
Y0.5Pr0.5Ba2Cu3O6.98,6.46
Sr1Fe1.75Rh0.25As2,6.45
Pr0.65Sr0.35Fe1As0.85Sb0.15O1,6.45
Eu1Fe1.72Ir0.28As2,6.45
Ca8.2La1.8Pt3Fe10As18,6.45
Pr0.65Sr0.35Fe1As0.9Sb0.1O1,6.45
Bi2Sr1.6Pr0.4Cu1O6.313,6.45
La1.884Ba0.116Cu1O4,6.45
Nd1.55Sm0.3Ce0.15Cu1O3.972,6.45
Sm1.85Ce0.15Cu1O3.97,6.44
Ge1Nb3,6.44
K2Rb1C60,6.44
La1.45Nd0.4Sr0.15Cu1O4,6.44
Ba1Fe1.84Co0.16As2,6.43
La1.84Sr0.16Cu0.985Zn0.015O4,6.43
La1Fe1As1O0.6,6.43
Ce1Fe1As0.85P0.15F0.05O0.95,6.43
Ca0.78La0.22Fe1As2,6.43
Nd1.84Ce0.16Cu1O4,6.43
La1.4Nd0.4Sr0.2Cu1O4,6.42
La1.875Ca0.125Cu1O4,6.42
Sr0.67K0.33Fe2As2,6.42
Ba1Fe1.844Co0.156As2,6.42
Sm1Fe0.9Ru0.1As1F0.15O0.85,6.42
Sm1Fe1As0.5P0.5O0.85,6.415
Ce1Fe1As0.85P0.15F0.05O0.95,6.41
Ba1Fe2As1.4P0.6,6.41
Nd1.85Ce0.15Cu1O4,6.41
La1.782Ba0.218Cu1O4,6.41
Nd0.85Pr0.15Ba2Cu3O6.75,6.41
Nd1.65Sm0.2Ce0.15Cu1O3.971,6.41
Nd1.85Ce0.15Cu1O3.971,6.41
Eu1Fe1.72Ir0.28As2,6.41
La2Cu1O4,6.4
Nd1.55La0.3Ce0.15Cu1O4,6.4
Ba0.6K0.4Bi0.9Pb0.1O3,6.4
Nd1.85Ce0.15Cu1O4,6.4
Ba0.62K0.38Bi1O3,6.4
Y0.65Pr0.35Ba2Cu3O6.6,6.4
Pr1.91Ce0.09Cu1O4,6.4
Mg1B1.8C0.2,6.4
Th1Pd3B3C1,6.4
La1.85Sr0.15Cu0.98Ni0.02O4,6.4
Ba1Fe1.84Co0.16As2,6.4
Ba1Fe1.89Co0.11As2,6.4
Eu1Fe1.5Ru0.5As2,6.4
Ba2Ti2Fe2As4O1,6.4
Eu1Fe1.72Ir0.28As2,6.4
Eu1Fe1.2As2P0.8,6.4
Ca0.74La26Fe0.954Co0.046As2,6.4
Sm1.75Gd0.1Ce0.15Cu1O3.97,6.4
Ba1Fe1.85Co0.15As2,6.4
K0.7Fe1.55Se1.01S0.99,6.4
La1Fe1As0.4P0.6F0.1O0.9,6.4
Nd1.86Ce0.14Cu1O3.96,6.4
La1.78Sr0.22Cu0.99Ni0.01O4,6.4
Ca0.4Ba1.25La1.35Cu3O7.04,6.4
La1.78Sr0.22Cu1O4,6.4
La1.77Sr0.23Cu1O4,6.4
Ba1Fe0.875Ru1.125As2,6.4
Nd1Fe0.7Ru0.3As1F0.11O0.89,6.4
La1.925Sr0.075Cu1O4,6.4
Nd1.85Ce0.15Cu1O3.98,6.4
Nd1.65La0.2Ce0.15Cu1O4,6.4
Ba0.57K0.43Bi1O3,6.4
Pr1.85Ce0.15Cu1O3.98,6.4
Pr1.85Ce0.15Cu0.97V0.03O3.98,6.4
Ge1Nb3,6.4
La1.865Ce0.135Cu1O4,6.4
Ca1Fe0.85Co0.15As1F1,6.39
Ca1Fe1.922Co0.078As2,6.39
La1Fe1As1F0.075O0.925,6.38
Ba1Fe1.48Ru0.52As2,6.38
La1Fe1As0.5P0.5F0.05O0.95,6.38
La1Fe1As0.4P0.6F0.1O0.9,6.38
Ba0.48K0.52Bi1O2.9,6.38
Y0.9Pr0.1Ba2Cu3O6.5,6.38
Nd1.85Ce0.15Cu1O4.026,6.38
Nd1.85Ce0.15Cu1O4.028,6.377
Nd1.85Ce0.15Cu0.98Mn0.02O4,6.37
La1Fe1As1F0.11O0.89,6.37
Na1Fe0.975Co0.025As1,6.36
Ba1Fe1.75Pt0.25As2,6.36
Ba1Fe1.824Co0.176As2,6.36
Ba2Ti2Fe2As4O1,6.36
La1Fe1As0.4P0.6F0.14O0.86,6.35
La1.87Sr0.13Cu0.993Zn0.007O4,6.35
Sr0.2La1.8Cu0.95Ti0.05O4,6.35
Sr0.2La1.8Cu0.95Ni0.05O4,6.35
Gd1Ba2Cu2.64Fe0.36O6.99,6.35
La1.8Ba0.2Cu1O4,6.35
Nd1.75Y0.1Ce0.15Cu1O4,6.35
Y1Sr2Cu2.65Ga0.35O6.7,6.33
Y1Sr2Cu2.6Fe0.4O7,6.33
Y1Sr2Cu2.675Ti0.325O6.6,6.32
Y1Sr2Cu2.65Ti0.35O6.8,6.32
Bi2Sr1.5La0.5Cu1O6.38,6.3
Nd1.85Ce0.15Cu1O4,6.3
Ca1.737Cu0.868Cl1.868Na0.132O2.263,6.3
La1.92K0.08Cu1O4,6.3
Sr1.4K0.6Cu1C1O5,6.3
Tl1Sr2Ca1Cu2O6.76,6.3
Y1Ba2Cu3.8Ni0.2O8,6.3
Sr2Cu1C0.94B0.06O5,6.3
Eu1.5Ce0.5Sr2Cu2Nb1O9.955,6.3
Pr1.79Ce0.15Sr0.06Cu1O3.94,6.3
Cu2Ti0.25Sr2Y1.3Ce0.7O8.71,6.3
La1.83Sr0.17Cu1O4,6.3
Nd1.85Y0.15Cu1O4,6.3
Sm0.8Pr0.2Ba2Cu3O6.65,6.3
Dy0.9Ca0.1Ba2Cu2.7Zn0.3O6.72,6.3
La1.74Nd0.125Sr0.135Cu1O4,6.3
La1.78Sr0.22Cu0.92Ni0.08O4,6.3
La1.775Sr0.225Cu0.995Ni0.005O4,6.3
La1.78Sr0.22Cu1O4,6.3
La1.77Sr0.23Cu1O4,6.3
La1.8Sr0.2Cu0.99Zn0.01O4,6.3
Er1Ba2Cu2.64Zn0.18Fe0.18O6.95,6.3
Y1Ba2Cu2.95Zn0.05O6.62,6.3
Sm1.65Gd0.2Ce0.15Cu1O3.97,6.3
Ru1Sr2Gd0.82Nd0.18Cu2O8,6.3
Pr1.86Ce0.14Cu1O4,6.3
Pr1.85Ce0.15Cu1O4,6.3
Mg1B1.8C0.2,6.3
Y1Pd4B1C0.2,6.3
Nb0.79Al0.16Ge0.05,6.3
Li1Hf0.5Zr0.5N1Cl1,6.3
Mg1B1.92F0.08,6.3
Nd1.85Ce0.15Cu0.96Mn0.04O4,6.3
Sr1Fe2As2,6.3
La1Fe1As1O1,6.3
Mo1Sr2Y1Cu2O8,6.295
Eu1Fe1.78Co0.22As2,6.29
Ba1Fe1.25Ru0.75As2,6.29
Ba1Fe1.824Co0.176As2,6.281
Eu1Fe1.715Co0.285As2,6.281
Eu1Fe2As1.7P0.3,6.28
Ca0.6Na0.4Fe2As2,6.28
La1.73Sr0.27Cu1O4,6.28
Pr2Ba4Cu7O14.3,6.28
Na1Fe0.975Co0.025As1,6.28
Na1Fe0.97Co0.03As1,6.28
Ca0.84Ce0.16Fe1As1.98Sb0.02,6.28
La1Fe1As1H0.44O0.56,6.28
Ca0.85Pr0.15Fe1As2,6.28
Eu1Fe1.78Ir0.22As2,6.28
La0.95Y0.05Fe0.995Mn0.005As1F0.11O0.89,6.278
Ba2Ti2Fe2As4O1,6.26
Ba1Fe1.889Co0.102Cu0.009As2,6.26
Pr1.85Ce0.15Cu1O4,6.26
Gd0.6Pr0.4Ba2Cu3O7,6.26
Nb0.75Al0.19Ge0.06,6.26
Mg1B1.6Be0.4,6.26
Nd1.85Ce0.15Cu1O4,6.25
Ca9.35Dy0.65Pt3Fe10As18,6.25
La1Fe1P0.6As0.4F0.1O0.9,6.25
Ba1Fe2As1.06P0.94,6.25
Al0.77Ge0.23Nb3,6.25
Pr2Ba4Cu7O14.44,6.25
Al0.75Ge0.25Nb0.003,6.25
Al0.8Ge0.2Nb3,6.25
Nb0.79Al0.164Ga0.057,6.25
Nb3Al0.71Ge0.29,6.25
Sr0.95Nd0.05Cu1O2,6.25
Ba1Fe1.82Co0.18As2,6.25
Ba0.52K0.48Bi1O2.93,6.24
Bi0.148Mo0.181Cu2.67Sr2Y1O7.21,6.24
La1.75Nd0.1Ca0.064Ba0.086Cu1O4.03,6.24
Ru1Sr1.98La0.02Gd1Cu2O8,6.24
La1.85Ca0.15Cu1O4,6.23
Ce1Fe1As0.8P0.2F0.05O0.95,6.23
Pr2Ba4Cu7O14.36,6.23
Y1Ba2Cu2.9Fe0.1O6.64,6.23
Y1Ba2Cu2.9Ni0.1O6.61,6.23
La1.85Sr0.15Cu0.99Ru0.01O4,6.23
Ga1Nb3,6.23
La1Fe1As1F0.05O0.95,6.23
Ba1Fe1.892Co0.108As2,6.221
Sr0.6La0.4Fe2As2,6.22
Ca6.85Pr3.15Pt3Fe10As18,6.22
Ba0.765K0.235Fe2As2,6.22
Ge1Nb3,6.21
La1.85Sr0.15Cu0.992Fe0.008O4,6.2
Ba0.59K0.41Bi1O2.96,6.2
Sr2Y1Ru0.9Cu0.1O6,6.2
Y0.6Pr0.4Ba2Cu3O6.95,6.2
Nb3Al0.76Ge0.24,6.2
Nb3Al0.66Ge0.34,6.2
Ca1Fe1.92Co0.08As2,6.2
Ca1Fe0.85Co0.15As1F1,6.2
Na1Fe0.97Co0.03As1,6.2
Ca1K1Fe3.872Ni0.128As4,6.2
Nd1.85Ce0.15Cu1O4,6.2
Al0.75Ge0.25Nb3.8,6.2
La1.92Sr0.08Cu1O3.994,6.2
Y0.35Pr0.65Ba1Sr1Cu3O6.9,6.2
Pr1.83Ce0.17Cu1O4,6.2
Ga0.4Nb0.6,6.2
Ga1Nb3,6.2
C60K3,6.2
La0.87Sr0.13Fe1As1O1,6.2
Sr0.33Hf1N1Cl1,6.2
La1Fe1As1H0.42O0.58,6.2
Ba1Fe1.9Ni0.1As2,6.2
Ba1Fe1.892Ni0.108As2,6.2
Al0.66Ge0.22Nb3.1,6.2
Nb0.78Al0.165Ge0.055,6.2
Nb0.75Al0.185Ge0.065,6.2
La1.85Sr0.15Cu0.988Zn0.012O4,6.2
Bi1.7Pb0.3Sr1.6La0.4Cu1O6.141,6.2
Y0.4Pr0.6Sr2Cu2.85Re0.15O6.8,6.2
Sm1.55Gd0.3Ce0.15Cu1O3.97,6.2
La1.8Pr0.2Cu1O4.063,6.2
Al0.75Ge0.25Nb3,6.2
Ga0.32Nb0.68,6.2
Ga0.245Nb0.755,6.2
Ba1Fe1.904Ni0.096As2,6.2
Ba0.33Hf1N1Cl1,6.2
La0.8Y0.2Fe0.985Mn0.015As1F0.11O0.89,6.2
La1.9Sr0.1Cu0.995Zn0.005O4,6.2
Nb0.75Al0.178Ge0.072,6.2
La1.887Ca0.113Cu1O4,6.2
Sr1Fe1.3Ru0.7As2,6.2
Na1Fe0.972Co0.028As1,6.2
Al0.8Ge0.2Nb3,6.2
Y1Ba2Cu2.82Al0.18O7,6.2
La1.9Ca0.1Cu1O3.967,6.2
Er1Ba2Cu3O6.34,6.2
Y1Ba2Cu3O6.5,6.2
Sm1La0.75Sr0.25Cu1O3.95,6.2
Nd1.5Ba1.5Cu3O7.14,6.2
Bi2Sr2Y1.64Ce0.36Cu2O10.22,6.2
Nd1.85Ce0.15Cu1O3.97,6.2
Nd1.85Ce0.15Cu1O4,6.195
Nd1.75La0.1Ce0.15Cu1O4,6.19
C60K3,6.19
Bi2Sr1.6La0.4Cu1O6.35,6.18
Nd1.5Ce0.5Sr2Cu2Nb1O10,6.18
Sm1.85Ce0.15Cu1O4,6.18
Y0.9Ca0.1Sr2Cu2.5Fe0.5O6.9,6.17
Bi2Sr2Y1.64Ce0.36Cu2O10.22,6.17
Ba0.55K0.45Bi1O3,6.17
La1.935K0.065Cu1O4,6.16
Sr1.5K0.5Cu1C1O5,6.16
Sr1.3K0.7Cu1C1O5,6.155
Hg1Ba2Cu1O4.025,6.15
Pr185Ce0.15Cu1O4,6.15
Sr0.7Ba1.3Y1Cu2.8Al0.2O7.11,6.15
Sr1Ba1Y1Cu2.8Al0.2O7.15,6.15
Ca1La1Ba1Cu2.91Zn0.09O7,6.15
Y0.3Pr0.7Ba2Cu4O8,6.14
La1.85Ca0.082Ba0.068Cu1O4,6.14
Ba0.5K0.5Bi1O3,6.14
Nd1.831Y0.018Ce0.15Cu1O4,6.14
La1.65Nd0.2Sr0.15Cu1O4,6.14
Ho1Ba2Cu2.94O6.48,6.13
La1.775Sr0.225Cu1O4,6.13
La1.76Sr0.24Cu1O4,6.13
Tl1Ba0.6Sr0.4La1Cu1O5,6.13
Nd1.85Ce0.15Cu0.999Ni0.001O4,6.13
Y1Ba2Cu2.94Zn0.06O6.63,6.13
Nd1.85Ce0.15Cu1O4,6.12
Y1Ba2Cu2.94Zn0.06O6.68,6.12
Y1Ba2Cu2.91Zn0.09O6.7,6.12
Y1Ba2Cu2.79Zn0.21O6.95,6.11
Lu0.5Pr0.5Ba1.7Sr0.3Cu3O6.92,6.1
Nd1.85Ce0.15Cu1O4,6.1
La1.3Ba1.5Ca0.2Cu3O6.7,6.1
La1.85Sr0.15Cu1O3.993,6.1
La1.78Sr0.22Cu0.998Zn0.003O4,6.1
La1.79Sr0.21Cu0.995Zn0.005O4,6.1
La1.78Sr0.22Cu0.995Zn0.005O4,6.1
La1.805Sr0.195Cu0.99Zn0.01O4,6.1
La1.79Sr0.21Cu0.99Zn0.01O4,6.1
Y1Ba2Cu2.931Zn0.069O6.6,6.1
Y1Ba2Cu2.919Zn0.081O6.75,6.1
Bi2Sr1.34La0.66Cu1O6,6.1
La1.76Sr0.24Cu1O4,6.1
La1.85Sr0.15Cu0.98Zn0.02O4,6.1
La1.91Ca0.09Cu1O4,6.1
Pr1.85Ce0.15Cu1O3.97,6.1
La1.85Sr0.15Cu0.985Zn0.015O4,6.1
La1.9Sr0.1Cu0.95Li0.05O4,6.1
Y1Ba2Cu3O6.45,6.1
Ru0.7Sn0.3Sr2Eu1Cu2O8,6.1
La1.87Ce0.13Cu1O4,6.1
Y1Ba2Cu3O6.35,6.1
Pr1.85Ce0.15Cu1O4,6.1
C60K3,6.1
Nb3Al0.95Ge0.05,6.1
Nb3Al0.94Ge0.06,6.1
Nb3Al0.93Ge0.07,6.1
Nb0.75Al0.188Ge0.062,6.1
Nb0.75Al0.19Ge0.06,6.1
Nb0.75Al0.2Ge0.05,6.1
Nb0.75Al0.21Ge0.04,6.1
Ga0.25Nb0.75,6.1
Li1,6.1
Mg1B1.85C0.15,6.1
Li0.37Hf1N1Cl1,6.09
Sr0.6K0.4Fe2As2,6.09
La1.9Ca0.1Cu1O4,6.09
Li1.1Fe1As1,6.09
La0.87Sr0.13Fe1As1O1,6.09
Ba1Fe1.8Co0.2As2,6.08
Sr2V1Fe1As1O2.5,6.07
La1Fe1As1F0.15O0.85,6.07
Ca0.5Na0.5Fe2As2,6.07
Sm1Fe1As0.5P0.5O1,6.06
Ca1.867Na0.133Cu1Cl2O2,6.06
Ba1Fe1.83Zn0.04Co0.13As2,6.06
Ba1Fe1.87Zn0.02Co0.11As2,6.06
K0.8Fe1.996Cr0.004Se2,6.056
Ba0.3K0.7Fe2As2,6.05
Ba1Fe1.906Co0.094As2,6.05
Ba1Fe1.9Ni0.1As2,6.05
Ca0.9Pr0.1Fe1.3As1.8O0.2,6.05
Ca0.9Pr0.1Fe1As2,6.05
K0.5Na0.24Fe1.52Se2,6.05
Ba0.9Yb0.1Fe2As2,6.04
Tl2Ba2Cu1O6,6.04
La1Fe1As1F0.05O0.95,6.04
Ba1Fe1.3Ru0.7As2,6.03
Ca1Fe2As1.86P0.14,6.03
La1Fe1As0.9P0.1H0.3O0.3,6.03
La1.8Eu0.2Cu1O3.5,6.03
Sr2V1Fe1As1O2.75,6.03
Na0.75Co0.995Ga0.005H2.6O3.3,6.02
La1Ni1C2,6.02
Bi3.975Cu0.025S3O4,6.02
Bi3.9Cu0.1S3O4,6.01
Bi3.975Cu0.025S3O4,6.01
Pd0.04Ir0.96Te2,6.01
La1F0.5Bi1S1.4Se0.6O0.5,6.005
Ni0.254Zr0.746,6
In0.69Tl0.31,6
Y0.3Lu0.7Ir4B4,6
Sr1Ga0.6Si1.4,6
La1Ni1As1O1,6
Sn0.704Pb0.176In0.12Te1,6
Ce0.6Nd0.4F0.5Bi1S2O0.5,6
Th1Pt1Si1,6
Te2Ti1,6
La1Fe1P1F0.14O0.86,6
Ba0.47K0.53Bi0.965Pr0.035O3,6
Mo0.9Re0.1,6
Pb1Te1Sn1,6
In0.1Tl0.9,6
Au1V3,6
Os0.025Zr0.975,6
Sn0.8In0.2Te1,6
Pd1Zr3,6
S3Sn1Ta1,6
Lu1Ni1B1C1,6
Ce1Bi1S2F0.6O0.4,6
Sr1Pd1.98Pt0.02Ge2,6
Y2Ir3Si5,6
Sr0.4La0.6Bi1S2F1,6
Te3Zr1,6
Cu0.1Ti2Se2,6
Mo0.91Ti0.09,6
Pb2Pd1,6
Mo0.913Ti0.087,6
Mo0.913Ti0.037,6
Si0.05V0.95,6
H0.87Pd1,6
Pd0.95Ni0.05H0.9,6
Cu0.1Bi2Se3,6
Th1Co1Si1,6
Se2Ta1.08,6
Ir0.96Pt0.04Te2,6
Ni0.329Zr0.671,6
Lu1Ni0.9V0.1B1C1,6
Zr0.87Ge0.13,6
Bi0.5Sb0.5,6
Lu0.55Tm0.45Ru1B2,6
Rh3Bi14,6
Eu1Sr2Bi2S2Se2F4,6
Cr0.06V0.94,6
Th1Ir0.2Os1.8,6
Ba1Pb0.5Hg0.25Bi0.25O3,6
La0.9Sm0.1Bi1S2F0.5O0.5,6
Ni0.388Zr0.612,6
Sc0.25Y0.75Ir3.6Rh0.4B4,6
Hf0.654Mo0.346,6
Nb0.25V0.75N0.94,6
Ru0.43V0.57,6
Sr1Pd1.8Rh0.2Ge2,6
Ce1Bi1S2F0.7O0.3,6
Bi2S2F0.1O0.9,6
Ir0.95Pt0.05Te2,6
La1Ni1C2,6
Ba1Pb0.9Bi0.1O3,6
Pd0.176Zr0.824,6
Nd1Pt2.1B2.4C1.2,6
Ba1Pd0.2Si1.8,6
Lu1Ni1B0.9C1.1,6
Ca1Cu0.25Si1.55,6
Ba8Si42Cu4,6
C1Os2W3,6
Ga7Pt3,6
Rh0.91Ti0.4V0.05,6
V2.7Ru0.3Si1,6
Nb2.01V0.99Au1,6
Ga0.7Pt0.3,6
N0.82V1,6
Si1V2.7Ru0.3,6
Ta0.05Ti0.95,6
Lu1Ni1.81Co0.38B2C1,6
C0.78W0.22Si1,6
Sn1Ta1S3,6
Ga1Nb4Se8,6
Os2Zr1,6
Y1.968Lu0.032Fe3Si5,6
La0.999Tb0.002Al2,6
La1Al1.995Si0.005,6
C1,6
Pd2Hf0.5Y0.5Al1,6
Ba1Al1Sn1,6
Ni2Nb1Sn1,6
Pb1.12Nb2Se5.12,6
Lu1Rh2Sn1,6
Y1Fe2Si2,6
Bi2Te3,6
Zr1Ru0.9Rh0.1P1,6
K0.9Na0.1Fe2As2,6
Mg1Pt0.5Au0.5Si1,6
Cs1Pb0.3Bi3.7Te6,6
Ce1Bi3.7Pb0.3Te6,6
Ce1Bi3.3Pb0.7Te6,6
Ce1Bi3.2Pb0.8Te6,6
Ba1Pd0.3Si1.7,6
Nd1Fe1P1F0.1O0.9,6
Nb1Bi2Se3,6
C1.36Pb5Bi12Se23,6
Sr0.5Ce0.5F1Bi1S1Se1,6
Ba1Pt1As1,6
Rb0.33W1O3,6
Co1Sc0.125Zr1.875,6
Ir3Lu1,6
Hf0.8Mo0.2,6
Sr1Pd1.9Pt0.1Ge2,5.99
La0.995Y0.005Fe0.995Mn0.005As1F0.11O0.89,5.99
Ba2Ti2Fe1.88Cr0.12As4O1,5.98
Pd0.195Zr0.805,5.98
Ba1Ta2S5,5.98
Ba1Ta2S5,5.975
Mn1U6,5.97
Pt1V3,5.97
Sn0.02V0.98,5.97
Th1Ir1.6Ru0.4,5.96
Th1Ir0.6Ru1.4,5.96
Th1Ir0.4Ru1.6,5.96
Ni2Zr1Ga1,5.96
Sr0.1Bi2Se3,5.96
Sr0.8Ba0.2Ni2P2,5.95
La3Co4Sn13,5.95
La1Pd0.8Bi2,5.95
Y2Dy3Os4Ge10,5.95
Rh0.342Zr0.658,5.95
Nb0.5Os0.5,5.95
Nb1Os1,5.95
U6Mn0.5Fe0.5,5.94
Cu1Rh1.9Sn0.1Se4,5.94
Hf1Pd2In1,5.94
Li2Pt3B0.99Al0.01,5.94
La1Ni1C2,5.94
Ir0.98Pt0.02Te2,5.94
Sn1.15Ta1S3.15,5.94
Nb1S3Sn1,5.935
Sb0.7Sn0.3,5.93
Y2Br0.25Cl1.75C2,5.93
Ta0.92W0.08,5.93
Bi14Rh3,5.93
In2Mo6Se6,5.93
Y3Ru4Ge13,5.92
La0.85Th0.15Bi1S2O1,5.92
La3Co4Sn13,5.91
Ce1Bi1S2F0.4O0.6,5.91
Pb0.18Sn0.74In0.08Te1,5.91
Cu0.05Ir1Te2,5.91
Bi2Te3,5.907
Pd0.204Zr0.796,5.9
Bi1Zr3,5.9
Si0.4W0.6,5.9
Si2W3,5.9
Lu4.5Tm0.5Ir4Si10,5.9
Co0.032Ti0.968,5.9
Ti0.99Nb2.01Sb1,5.9
Ba1Ni2Ge0.4P1.6,5.9
Cu0.05Ir1Te2,5.9
Pb0.184Sn0.736In0.08Te1,5.9
Ir0.95Pt0.05Te2,5.9
Sr0.1Bi2Se3,5.9
Sr0.6Ba0.4Ni2P2,5.9
Th1Si1Co1,5.9
Al0.06V0.94,5.9
Tl1Ni2Se1.8S0.2,5.9
Mg0.8Zn0.2C1Ni3,5.9
Pd2Tm1Sn1,5.9
Y0.8Ca0.2C2,5.9
La1Rh3B2,5.9
Cu1Co1.98Rh0.02S4,5.9
Y2Pd1Ge3,5.9
Dy1Rh2.8Ir1.2B4,5.9
La1Pt0.8Ni0.2Si1,5.9
Sr1Pd1.99Pt0.01Ge2,5.9
Ir0.43Rh0.52Te2,5.9
Sn0.736Pb0.184In0.08Te1,5.9
La0.9Ce0.1Ir3,5.9
H0.12Ta0.88,5.9
Sn0.807Pb0.142In0.05Te1,5.9
Sr0.5Ce0.5F1Bi1S2,5.89
La1.85Sr0.15Cu0.973Zn0.027O4,5.89
La1.94Sr0.06Cu1O4,5.889
Sr0.2Ta1S2,5.88
Na0.38Co1H2.6O3.3,5.88
Pd2Y0.85Dy0.15Sn1,5.872
Pd2Yb1Pb1,5.87
C1Mo2,5.87
Ba1Al0.95Si1.05,5.87
Cd1C1Ni3,5.86
Cs0.5Nb1S2,5.86
Be0.813Zr0.187,5.86
In1.1Te1,5.86
Al1Sb1,5.86
Bi2Te3,5.86
C0.42Mo1,5.86
Fe0.5Mn0.5U6,5.86
In0.11O3W1,5.85
Mo0.93Pt0.17,5.85
Nb0.9Rh0.1,5.85
Nb0.9Ru0.1,5.85
Pb0.8Pt0.2,5.85
Sn0.25Ta0.25V0.5,5.85
Ta0.25V0.75,5.85
B1Zr1,5.85
B1Re2,5.85
Pb4Pt1,5.85
V2Ta1Sn1,5.85
Nb3Rh0.9Pt0.1,5.84
Pb4Pt1,5.84
Sn1Ta1V2,5.84
La1Ru4Sb12,5.84
Cu0.7Zn0.3Ir2S4,5.83
Zn1Mo6S8,5.83
Cu0.65Zn0.35Ir2S4,5.82
Ca1Tl1.8Pb1.2,5.82
Ba8Si25Ge21,5.82
Mo0.071Ti0.929,5.82
Pd0.985Ni0.015H0.79,5.82
Mg1C1Ni2.7Ru0.3,5.81
Nb3Rh0.9Pt0.1,5.81
Sr0.2Ta1S2,5.8
Zn1Mo6S8,5.8
Ta1V2,5.8
La3Co4Ge13,5.8
La1Ru4Sb12,5.8
Ru7B3,5.8
Nb6Sn5,5.8
La1.79Sr0.21Cu0.94Fe0.06O4,5.8
Sr1Ir2As2,5.8
Ni2As2Sr4Sc2O6,5.8
Sr1Si1.7Ni0.3,5.8
Lu1Pd2Sn1,5.8
Lu1.96Sc0.04Ir3Si5,5.8
Sr0.5La0.5F1Bi1S2,5.8
La1Pd0.6Ge0.14,5.8
Sr0.5Ce0.5Bi1S2F1,5.8
Sr0.5La0.5Bi1S2F1,5.8
Ce1Bi3.1Pb0.9Te6,5.8
Pd0.4Ho1Te3,5.8
Cu0.05Ir1Te1.8Se0.2,5.8
La1Ni1C2,5.8
Y3Ru4Ge13,5.8
Ba1Pt1As1,5.8
K0.6Mo1S2,5.8
Zr4Rh2O0.7,5.8
Zr5Ge2.5Pt0.5,5.8
Pb1.6Bi0.4Pd1,5.8
K1Mo15Se19,5.8
Nb3Rh1,5.8
Cu1Co1.98Ir0.02S4,5.8
Hf0.834W0.166,5.8
Lu5Rh4Ge10,5.8
Al1Gd0.006La3,5.8
Tm0.8Lu0.2Fe3Si5,5.8
La0.95Y0.05Ni1C2,5.8
K1Fe2As2,5.8
Ba1Ag0.4Si1.6,5.8
La0.2Ce0.8Ir3,5.8
C1Mo2,5.8
Zr0.409Ti0.334Ni0.256,5.8
Ag1Bi1,5.8
Sr0.67Pt3B2,5.8
Ta0.91W0.09,5.8
Au0.12Zr0.88,5.8
Au0.1Zr0.9,5.8
La0.999Gd0.001Al2,5.8
Lu2Fe3Si5,5.8
Bi2Pd1,5.8
La1Pt0.7Ni0.3Si1,5.8
Y1Ir2Si2,5.8
Pd2Y0.6Er0.4Sn1,5.8
Ni1Zr2,5.8
Hf0.78W0.22,5.8
Re0.05Ta0.95,5.8
Ce1Bi1S2F0.4O0.6,5.79
Sn0.76Pb0.19In0.05Te1,5.79
P1W3,5.78
In0.62Tl0.38,5.78
La0.95Nd0.05Pt1Si1,5.77
Y5Ir4Ge10,5.77
Sr1Pd2Si0.02Ge1.98,5.77
Nb2Pd1S4Se1,5.77
Pb0.19Sn0.76In0.05Te1,5.766
Sr0.5Ba0.5Ni2P2,5.76
La3Pd4Ge4,5.76
Bi4Rh1,5.75
Sn1.17Nb1S3.17,5.75
Ta1S1.8Se0.2,5.75
Mg0.47Tl0.53,5.75
Sr1Ta2S5,5.75
Sn1Nb1S3,5.74
Y1.9Dy0.1Fe3Si5,5.74
Th1Ir0.1Si1.9,5.74
La1Ni1As1O1,5.73
Eu1,5.72
Fe1Se0.5S0.5,5.72
La1Ni1As1O1,5.72
La3Pd4Ge4,5.72
La1Bi1S2F0.5O0.5,5.72
Ru2Y1,5.71
Cr0.74Re0.26,5.71
Ta1S2,5.71
C1W2,5.71
Al0.964Ge0.036,5.71
C1W2,5.7
Lu4.5Er0.5Ir4Si10,5.7
La0.39Ce0.61Ir3,5.7
Au1V3,5.7
B2Nb1,5.7
Nb0.9Mo2.1Al1,5.7
La0.97Gd0.03Ru2,5.7
Ta0.5V0.5,5.7
Pb1.14Nb1S3.14,5.7
Mg1Mo6S7,5.7
Sm1Rh4B4,5.7
Y1Ir2Si2,5.7
Sr1Pd2Si0.04Ge1.96,5.7
Pr0.55Eu0.45Pt4Ge12,5.7
Eu3Bi2S2.5Se1.5F4,5.7
Li0.62Rb1Ca2Nb3O10,5.7
Na0.26Co1H2.6O3.3,5.7
La2.945Gd0.055In1,5.7
Hf0.906Mo0.094,5.7
Cu0.1Ta1S2,5.7
Cu0.07Ir1Te2,5.7
Cu0.125Ir1Te1.7Se0.3,5.7
Li0.69Fe1.31S1H1O1,5.7
Sr2Ru1O4,5.7
Bi1.08Ta2S5.08,5.7
K1Tl1.5C4,5.7
K1Tl1.5C4,5.69
In0.95Te1,5.69
Bi1.08S5.08Ta2,5.69
K1Tl1.5C4,5.68
Au1Ge1,5.68
Bi0.8Rh0.2,5.68
Cu1Rh1.95Se4Sn0.05,5.67
Mn0.67Ni0.33U6,5.67
Nb0.375Rh0.625,5.67
Rh1Zr1,5.67
Ti0.96V0.04,5.67
Ti0.96V0.04,5.66
Nb0.75Rh1.25,5.66
Nb3Rh0.9Au0.1,5.66
La1Ni1C2,5.65
Sm1Rh4B4,5.65
Ce1Te1.82,5.65
Y1,5.65
As1,5.65
Y1,5.64
Cu1Co1.8Cr0.2S4,5.63
Nb3Rh0.9Au0.1,5.63
Ti0.36V0.54Al0.1,5.63
Y1Ir1Si1,5.62
Y2Rh3Si5,5.62
Sr1Ti1O3,5.62
Co7Y9,5.62
Th0.3Zr0.7,5.61
Tc0.25Ti0.75,5.61
La0.8Y0.2,5.61
Re1Ge2,5.6
Pb0.06Tl0.94,5.6
Ga0.1Nb1Se2,5.6
Ni2As2Sr4Sc2O6,5.6
Sr1Pd2Ge2,5.6
Si3W5,5.6
Zr0.394Cu0.308Al0.242Ni0.056,5.6
La3Co4Sn13,5.6
In1N1,5.6
La1Bi1S2F0.5O0.5,5.6
Sr1Pd2Si0.1Ge1.9,5.6
La1Pd1Sb2,5.6
Sr0.5Ce0.5F1Bi1S2,5.6
Cs1Pb1Bi3Te6,5.6
Ce1Bi3Pb1Te6,5.6
Bi2.14F0.27S2O0.73,5.6
Pd0.03Ir0.97Te2,5.6
La1Ni1C2,5.6
Th1Si1.075Co0.925,5.6
Cu1.5Pb5Bi6Se23,5.6
Nb1Os2,5.6
Sr0.5Ce0.5F1Bi1S1.5Se0.5,5.6
Re0.174Zr0.826,5.6
Hf1Os2,5.6
La2.58Pr0.42S4,5.6
Sr2Ru1O4,5.6
Ir0.94Pt0.06Te2,5.6
Cr0.74Re0.26,5.6
Cu0.1Ti1Se2,5.6
Nb1Sn2,5.6
C1,5.6
Y2Pd0.9Pt0.1Ge3,5.6
Au1.3Pd0.7In1Y1,5.6
Zn0.025In2O3,5.6
Ce1Bi1S2F0.7O0.3,5.59
Ce1F0.7Bi1S2O0.7,5.59
Pr1Pt4Ge11Sb1,5.59
Pd0.03Ir1Te2,5.58
Eu0.5Ce0.5F1Bi1S1.8Se0.2,5.58
Co0.459Zr0.541,5.58
Ag1Tl1,5.58
Ag0.03Tl0.97,5.58
Lu1Ir3.6Rh0.4B4,5.57
Mo0.3Nb0.7,5.57
Cd1Mo5S6,5.57
Sc1Mo6S7,5.56
Cd1Mo5S6,5.56
Am0.01Si2Th1,5.56
Nb1Pb1S3,5.55
Pb2Rh1,5.55
Pb1Nb1S3,5.55
Lu1Os1B2,5.55
Y1Mo6S7,5.55
Y1Mo6S7,5.54
Sm1Rh4B4,5.54
Pd34Se11,5.54
Pd34Se11,5.53
Pb0.237Sn0.713In0.05Te1,5.53
Nd0.02La0.98Ni1C2,5.53
La1.48Nd0.4Sr0.12Cu1O4,5.53
Na0.34Co1H2.6O3.3,5.53
Na0.34Co1H2.6O3.3,5.523
Ta0.75V0.25,5.52
Nb1Ru1Si1,5.52
Fe0.1Ni0.9Zr2,5.52
Bi1.09Ta2S5.09,5.51
La1Pd1Si3,5.51
La1Bi1S2F0.5O0.5,5.51
Th1Co1C2,5.51
Tl1Ni2Se1.6S0.4,5.51
Sr0.5Ce0.5F1Bi1S1.5Se0.5,5.5
Ni0.388Zr0.612,5.5
Au1Be1,5.5
Nb3Rh1,5.5
Sb0.02Sn0.98,5.5
Au1.6Pd0.4In1Y1,5.5
Sr1Pd1.98Ag0.02Ge2,5.5
La0.85Th0.15Bi1S2O1,5.5
Sb0.03V0.97,5.5
Pt1V3,5.5
La1Pt0.6Ni0.4Si1,5.5
C1,5.5
Y5Ir4Si10,5.5
Y2Pd0.8Pt0.2Ge3,5.5
Sr1Pd1.9Ag0.1Ge2,5.5
Sn0.713Pb0.237In0.05Te1,5.5
La0.9Th0.1Ru2,5.5
Cu0.6Zn0.4Ir2S4,5.5
La0.23Th0.77Pb3,5.5
Cu1Co1.99Rh0.01S4,5.5
Co0.03Zr0.97,5.5
Co0.02V0.98,5.5
Tm4Y1Rh6Sn18,5.5
Ir0.9Rh0.1Te2,5.5
Lu1Ni1B0.9C1,5.5
Lu1Ni1B0.8C1,5.5
Na0.32Co1H2.6O3.3,5.5
Be0.845Zr0.155,5.5
Pd0.241Zr0.759,5.5
Ni0.434Zr0.566,5.5
In1.15Te1,5.5
Ag1Te3,5.5
Al2Th3,5.5
Au0.3Pd0.033Te0.666,5.5
Ce0.02La0.98,5.5
Ce0.8Tb0.2Ru2,5.5
Ir1Os1Y1,5.5
La1Rh3,5.5
Mo0.25Ru0.75,5.5
Rh0.06Ti0.94,5.5
Y1Ir1Os1,5.5
Nb1Sn2,5.5
Na1.5Ba6Si46,5.5
Lu1Ni0.8V0.2B1C1,5.5
Lu1Ni1.8Co0.4B2C1,5.5
Er1Ni1.955Co0.09B2C1,5.5
La7Rh3,5.5
Rb0.23W1O3,5.5
Mo0.94Fe0.06Ga4,5.5
Ge2Lu1,5.5
Lu5Ir4Ge10,5.5
Li2Mo15Se19,5.5
Y1Ir2Si2,5.49
Hf0.87Mo0.13,5.49
La3Ir4Sn13,5.49
Th3Ir4Sn13,5.48
Li2Pt3B1,5.48
Tm4Os4Si13,5.47
La1Pd1Si3,5.47
Cs1Fe2As2,5.47
Y3Pt4Ge6,5.47
Sr1Ga1Ge1,5.47
Rb1Fe2As2,5.47
Yb1Ga1.15Si0.85,5.47
Tl2Mo6Se6,5.46
Zr1Ru0.8Fe0.2P1,5.46
Sr1Si1.8Ni0.2,5.46
Sr1Pd2Ge2,5.45
La1Ni2P2,5.45
Sr1Pd1.86Pt0.14Ge2,5.45
Bi3.95Cu0.05S3O4,5.45
Au0.216Pd0.044Te0.740,5.45
La1Pd1Si3,5.45
Ca1Al1Si1,5.44
La1Bi1Se2F0.5O0.5,5.44
Ca1Al1Si1,5.43
Ba1Pt0.3Si1.7,5.43
Sr0.065Bi2Se3,5.43
Cu0.1Ir1Te2,5.43
Na1Fe0.963Cu0.037As1,5.42
Bi0.8Pb0.2Pd1,5.42
Zr5Ge2.8Pt0.2,5.42
Sr0.5Ce0.5F1Bi1S1.7Se0.3,5.42
Er0.6Y0.4Pd2Sn1,5.42
Ba1Ni2Ge0.2P1.8,5.42
Ba1Ti2Sb1.4Bi0.6O1,5.41
Bi3.95Cu0.05S3O4,5.41
La0.983Lu0.009Tb0.007,5.4
Ni0.400Zr0.600,5.4
B3Ru7,5.4
La7Rh3,5.4
B0.3Ru0.7,5.4
Sr1Ga0.65Si1.35,5.4
La0.9Pr0.1Pb3,5.4
Th0.1Zr0.9,5.4
Sr1Pd1.94Co0.06Ge2,5.4
Eu2Sr1Bi2S2Se2F4,5.4
Sn0.768Pb0.192In0.04Te1,5.4
Nb0.05Bi2Se3,5.4
K1Tl1.5C4,5.4
Ce0.02La0.98,5.4
Pd1Te1.02,5.4
La0.94Nd0.06Pt1Si1,5.4
Li2Pt3B1,5.4
Ge4Rh1,5.4
Co0.5Mn0.5U6,5.4
Mn0.14Ti0.86,5.4
Nb3Rh0.9Pd0.1,5.4
Pr1Mo6S8,5.4
Ba1Ni2P2,5.4
Rb1Fe2As2,5.4
Ce1Au2Si2,5.4
Sr0.3Ba0.7Ni2P2,5.4
La1F0.5Bi0.98S2Sb0.02O0.5,5.4
Be22Mo1,5.4
Cd0.18Tl0.82,5.4
La1Pb0.75Sn2.25,5.4
Pd0.3Zr0.7,5.4
Pt1V3,5.4
Nb3Rh0.98Au0.02,5.4
Nb3Rh0.95Pt0.05,5.4
Au0.02Nb3Rh0.98,5.4
La0.99Tb0.01,5.4
Mo0.038Zr0.962,5.4
Nb3Rh0.95Pt0.05,5.39
Nb3Rh0.98Au0.02,5.39
Th1Ir1Ru1,5.38
Th1Ir0.8Ru1.2,5.38
Cu0.03Ir1Te2,5.38
Ba1Cu0.5Si1.5,5.37
Sr0.15Ba0.85Ni2P2,5.37
Ba1Ni2P2,5.36
Ir0.8Rh0.2Te2,5.36
Nb1Os2,5.35
Nb3Rh0.95Au0.05,5.35
Nb3Rh0.98Pt0.02,5.35
Nb3Pt0.02Rh0.98,5.35
Ce0.8Tb0.2Ru2,5.35
Pd0.985Ni0.015H0.84,5.35
In0.4Tl0.6,5.35
Nb3Rh0.98Pt0.02,5.34
Nb3Rh0.95Au0.05,5.34
Au0.07Zr0.93,5.34
Y2Pd0.7Pt0.3Ge3,5.33
Rb1Fe2As2,5.32
Sr1Pd1.8Ag0.2Ge2,5.32
Be22Mo1,5.32
Hf0.661W0.339,5.32
Sm1Rh4B4,5.32
Ba1Ni2P2,5.32
La1Ru2.917Fe0.083Si2,5.31
Li0.48Fe1.52S1H1O1,5.31
La1.85Sr0.15Cu0.973Co0.027O4,5.31
La1.85Sr0.15Cu1Ni0.04O4,5.31
La1.75Sr0.25Cu0.96Ni0.04O4,5.31
C1,5.31
Lu1Ni1B1C1,5.3
Lu1Ni1B0.95C0.95,5.3
Mg0.7Zn0.3C1Ni3,5.3
Pd2Yb1Pb1,5.3
Lu5Ir4Ge10,5.3
B5Nb1.8V0.2,5.3
Cr0.8Os0.2,5.3
Cu0.05Rh0.04Ti0.91,5.3
H0.81Pd1,5.3
Hf0.9Mo0.1,5.3
In1Sb1Sn1,5.3
La0.75Y0.25,5.3
Mg0.9Mo5.1S6,5.3
Nb0.9Pt0.1,5.3
Nb0.4Ru0.6,5.3
Se1Y1,5.3
Y1,5.3
La1Si2,5.3
Nb0.4Re0.6,5.3
Nb3Rh0.98Pd0.02,5.3
Co0.5Rh0.5Si2,5.3
Ru0.05Ti0.95,5.3
Lu0.1Dy0.9Ni2B2C1,5.3
Cu1Se2,5.3
Na2Rb1C60,5.3
Na2K1C60,5.3
Ba1Nb2Se5,5.3
Cd1.3Mo6Se7.5,5.3
Nb1Se3,5.3
Mg1B1.75C0.25,5.3
Y1Ir2Si2,5.3
S2Ta1,5.3
Co3Y4,5.3
Bi1La4Pb2,5.3
Yb3Co4Sn13,5.3
Y4Os6Sn19,5.29
Mg0.7Zn0.3C0.99Ni3,5.29
Sm1Fe1P1O1,5.29
Er0.72Gd0.28Rh4B4,5.28
Mg12Ir19B16,5.28
Ni0.02Ta1Se2,5.28
La3Ir4Sn13,5.28
Li1Rh1B1.5,5.28
Li1.2Rh1B1.5,5.28
Cu0.06Ti1Se2,5.28
Lu2Ir2.4Rh0.6Si5,5.27
La3Pd4Ge4,5.27
Pr1Ru4As12,5.26
La1Rh1P1,5.26
Ir0.95Pd0.05Te2,5.26
La0.95Y0.05F0.5Bi1S2O0.5,5.25
La1Bi1S2F0.5O0.5,5.25
La1Bi1S1.6Se0.4F0.5O0.5,5.25
Rb1Fe2As2,5.25
Mg1Pt1Si1,5.25
La3Ir4Sn13,5.25
Ir1Te2,5.25
Ge4Rh1,5.24
Te2Ti1,5.24
Bi1.5Pb0.5Pd1,5.24
Sr0.1Bi2Se3,5.24
Pd1Bi1.72Pb0.28,5.23