formula,Tc,type
Ag0.99Sn0.56Te2.37,3.0,original
As2.3Cr1.47Cs21.05,3.0,original
Bi1.47Eu3.35F5.12La0.4S2.07,3.0,original
Ni4.79S0.5Se0.79Tl4.41,3.0,original
Bi2.57Pb1.02Pd1.94,3.0,original
In1.68Pd3.98Zr3.7,3.0,original
Bi1.47F2.5La1.11S1.84,3.0,original
Ce5.81Co4.41Hg0.16In8.86,3.0,original
Bi1.3F2.5La1.11S2.07,3.0,original
Rh0.61Zr2.15,3.0,original
Ir3.36Y2.04,3.0,original
Ce5.81Co4.41In8.9,3.0,original
Ce5.81Co3.5In8.92Ru0.41,3.0,original
Pd0.14Se1.15Ti4.19,3.0,original
Co0.32Si0.55Th3.56,3.0,original
Fe1.93H3.58Li2.03S0.95,3.0,original
Ge1.49La1.11,3.0,original
Ge1.45La1.11,3.0,original
Ge1.43La1.11,3.0,original
Ge1.41La1.11,3.0,original
B1.62Os3.03,3.0,original
As0.65Cr0.48,3.0,original
Ce0.71Ge9.94La0.9Pt9.58,3.0,original
Bi3.16Eu20.66F20.82S3.63Se0.29,3.0,original
Ge0.73Mo3.59,3.0,original
Na0.86O0.2W5.25,3.0,original
Mo0.81,3.0,original
Ir1.1Y0.37,3.0,original
W10.56Zr3.7,3.0,original
La1.1,3.0,original
Ce5.51Co4.41In8.92Yb0.42,3.0,original
Pb1.08Sn0.38Te2.37,3.0,original
Ni4.79S0.73Se0.66Tl4.41,3.0,original
C0.24La1.06Ni2.3,3.0,original
La3.98Pd8.06Si1.26,3.0,original
Cd11.81Hg7.24,3.0,original
Rh5.35Th25.48,3.0,original
Cr0.18Re0.84,3.0,original
Dy12.55Mo7.34S8.78,3.0,original
Ho13.18Mo7.34S8.78,3.0,original
Cd0.15Ce5.81Co4.41In8.89,3.0,original
Al0.98Nb1.1Ni4.79,3.0,original
As1.47Ba0.64Fe2.12,3.0,original
Ag0.57Sn0.64Te2.37,3.0,original
Mo3.48Sb8.53,3.0,original
Mg3.17Ni6.29Ru0.97,3.0,original
Ge2.41Pt2.29Y4.44,3.0,original
Ce5.81Co4.41In8.7Zn0.22,3.0,original
Cd0.18Ce5.81Co4.41In8.89,3.0,original
Mo1.1Se0.17Te3.87,3.0,original
Pb3.13Se1.15Ta5.24,3.0,original
Ce4.01La0.11Ru5.45,3.0,original
Ir8.59La1.11,3.0,original
Ir1.62Zr11.4,3.0,original
Co8.73Cu0.13S4.3,3.0,original
Hf9.03,3.0,original
Cd2.91Ce5.81Co4.41In8.47,3.0,original
Ni1.8Zr7.55,3.0,original
Fe0.17Ni1.48Zr7.55,3.0,original
Ce5.81Co3.05In8.92Ru0.69,3.0,original
Bi1.47F5.12La0.28S2.07Sr0.72,3.0,original
Ce5.73Co4.41In8.92,3.0,original
As1.47Ba0.64Pt4.72,3.0,original
U2.96,3.0,original
Ge2.41Rh8.99,3.0,original
Ge1.57Rh8.99,3.0,original
Ru1.02V0.4,3.0,original
Ge1.57Rh5.35,3.0,original
B3.04Ho12.08Ir6.85,3.0,original
Bi1.47La0.54S2.07Th1.37,3.0,original
B0.68Li14.58Pt7.15,3.0,original
Eu3.35Ge9.94Pr0.36Pt9.58,3.0,original
Bi1.47Ce4.01Pr0.21S2.07,3.0,original
U2.89,3.0,original
U2.82,3.0,original
Mn0.17Zr2.64,3.0,original
Ag8.28In1.68,3.0,original
Pd1.94Te2.52,3.0,original
Hf9.18,3.0,original
B3.4Er7.65Ir4.06Rh2.79,3.0,original
U3,3.0,original
Ba0.64Si0.45,3.0,original
Cu0.11La2.33O0.48,3.0,original
Ba1.72Cu1.39O1.29Pr0.41Y0.7,3.0,original
Pb3.13Pd3.98Tm7.72,3.0,original
Be0.8Zr0.34,3.0,original
Pd0.52Zr2.52,3.0,original
Al0.98Mo7.34Pd1.94,3.0,original
Ir3.36W15.87,3.0,original
Fe0.38Ni1.06U21.67,3.0,original
In1.68Sb1.15,3.0,original
Mo3.59Sb4.84,3.0,original
Pt2.29Sb1.15,3.0,original
Cr0.28Ru0.97,3.0,original
B1.62Dy10.45Ni4.75,3.0,original
Fe3.58Th25.48,3.0,original
Mo7.34S8.78Y2.52,3.0,original
La1.11Rh1.7Sb1.15,3.0,original
Rh1.7Sb1.15Y2.04,3.0,original
F0.41K0.41O0.17W5.25,3.0,original
Cs0.99F0.93Li0.63O0.14W5.25,3.0,original
K10.77Mo18.58Se11.58,3.0,original
La9.72Ni7.28,3.0,original
Ca3.54Ge10.78Rh7.17,3.0,original
Ba0.64Ir3.36P3.64,3.0,original
Al0.98Pd3.98Zr3.31,3.0,original
Ce5.81In12.54Pt4.72,3.0,original
Bi6.54Te7.36,3.0,original
Ga3.41Sc4.95,3.0,original
Pt4.72Sb2.38Sr1.46,3.0,original
Ge1.57Ni2.3Pd1.94Sr1.46,3.0,original
Nb3.63Pd1.33Se4.22,3.0,original
Bi3.16La1.11Pd1.63,3.0,original
FeSe0.11Te1.63,3.0,original
Bi3.16Rh6.26S2.07,3.0,original
Ag0.24Bi6.42O0.48S3.19,3.0,original
As3.12Eu6.81Fe4.45Ni0.61Rb5.68,3.0,original
Ga5.72Re1.43,3.0,original
Ce5.69Co4.41In8.92,3.0,original
Rb5.68,3.0,original
B3.58W5.25,3.0,original
Se1.15Ta5.78,3.0,original
As1.47Cd35.55,3.0,original
Pd0.48Zr2.2,3.0,original
B1.62Ir5.11Th3.56,3.0,original
Pt0.9W2.96,3.0,original
Ce5.21Co4.41In8.92Yb0.92,3.0,original
K1.94O0.2W5.25,3.0,original
Ir1.1Rh0.42Te4.87,3.0,original
Ni4.79S1.84Tl4.41,3.0,original
Er6.1Pd3.98Sn0.78Y0.13,3.0,original
Ta4.84,3.0,original
Ir2.32Ru1.53Th3.56,3.0,original
C0.24La0.9Ni2.3,3.0,original
B0.73Ca1.05N5.82Ni2.3,3.0,original
Bi16.47Ca12.24,3.0,original
Ir1.62Nb3.63,3.0,original
Ir3.36Sc4.95,3.0,original
Rh2.25Sn3.43Tm7.72,3.0,original
Be12.82U3.54,3.0,original
Bi1.47Rh1.7,3.0,original
Mo0.12U2.75,3.0,original
V0.66,3.0,original
Pb0.19Sn0.65Te2.37,3.0,original
Cr0.37Ru0.48,3.0,original
Cu0.13La2.26O0.48,3.0,original
Nb0.15Sb0.22Ti2.02,3.0,original
Te2.37Y2.04,3.0,original
Te2.37,3.0,original
Ti0.64V0.51,3.0,original
Ir1.61Te4.87,3.0,original
Cd0.42Ce5.81Co4.41In8.85,3.0,original
Se0.79Ta5.24Te1.38,3.0,original
Mo3.59Sb8.5,3.0,original
Bi1.47La0.83S2.07Th0.64,3.0,original
Ce5.81In8.92Rh1.52,3.0,original
In1.52Te2.37,3.0,original
Au2.01Tl3.19,3.0,original
Ru2.65,3.0,original
Ca1.05Tl13.51,3.0,original
Ta5.24,3.0,original
LaNd0.25Pt2.29Si0.25,3.0,original
Ir1.62Si0.25Zr3.7,3.0,original
Pd1.33Se0.11,3.0,original
Fe0.2Ni1.4Zr7.55,3.0,original
Bi1.47La0.68S2.07Th1.01,3.0,original
La1.11Pt2.29Si0.25,3.0,original
N4.04V0.73,3.0,original
Ni4.79S1.17Se0.42Tl4.41,3.0,original
Ce5.72Co4.41In8.92,3.0,original
Hf19.86Rh1.7,3.0,original
U3.04,3.0,original
Cr0.97Ru2.65,3.0,original
Fe0.13Ni1.55Zr7.55,3.0,original
Nb0.11U2.75,3.0,original
Nb0.68Pb3.13S3.19Ta1.65,3.0,original
W4.19Zr0.61,3.0,original
Ce1.01La0.83Ru5.45,3.0,original
Cu0.12La2.4O0.48,2.0,original
Co4.41H9.43Na1.73O0.28,2.0,original
Co4.41H9.43Na1.53O0.28,2.0,original
Ce5.81Cu0.76Ge1.57,2.0,original
Se1.15Ti8.52,2.0,original
Ni1.2Zr1.54,2.0,original
In1.68Sb1.15,2.0,original
Bi4.85Ca1.05,2.0,original
Co4.14U21.67,2.0,original
Co2.14Rh0.79Si0.58,2.0,original
Cu0.13Se0.54Te2.37,2.0,original
Os3.03Re1.43Y2.04,2.0,original
Rh1.7Ta5.24,2.0,original
Ti4.02,2.0,original
Rh1.53Ti0.25,2.0,original
Ru2.65,2.0,original
O0.2Tl1.23W5.25,2.0,original
Nb0.47Re0.69,2.0,original
O0.2W5.25,2.0,original
Ti2.02Zr1.77,2.0,original
B1.62Dy7.29Lu0.91Ni4.79,2.0,original
B1.62Ni4.79Tb5.52Y1.09,2.0,original
Ni2.3Zr7.55,2.0,original
Al3.08Pd3.98U3.54,2.0,original
Nb3.63Se2.38,2.0,original
Fe1.02,2.0,original
B3.4Ho10.97Ir6.85,2.0,original
B3.4Lu3.29Ru11.04,2.0,original
Ce5.81Co4.41In8.92,2.0,original
C0.94Ir6.85,2.0,original
B1.62Er5.32Ni4.79Tb4.13,2.0,original
B1.62Er3Ni4.79Tb8.3,2.0,original
B1.62Dy7.08Lu0.98Ni4.79,2.0,original
Ce11.8In14.35Rh1.7,2.0,original
Cs10.49I10.24,2.0,original
Sb0.17V0.53,2.0,original
Cr0.48Ru5.45,2.0,original
F0.93Li0.63O0.14Rb0.49W5.25,2.0,original
Au7.67Sc4.95,2.0,original
Pd0.39Ti3.15,2.0,original
Mo7.34S8.78,2.0,original
Ga6.87Y2.04,2.0,original
As0.65,2.0,original
As0.65Nb2.37,2.0,original
Ce5.81Co3.05In8.92Ir0.41,2.0,original
Ir6.85Lu16.67Si3.27Yb0.42,2.0,original
La1.11Rh1.7Sn0.78,2.0,original
,2.0,original
Ba0.64Pt2.29Si0.92,2.0,original
Ga1.1Nb0.47Ni4.79Zr1.77,2.0,original
Rh3.52Sc4.95Sn0.78,2.0,original
Cs3.1O0.2W5.25,2.0,original
As1.47Ca1.05Co1.68Fe1.79,2.0,original
As1.47Co0.25Fe2.19Sr1.46,2.0,original
As1.47Co0.37Fe2.16Sr1.46,2.0,original
As1.47Co0.96Eu5.77Fe1.99,2.0,original
As1.47Co0.96Eu6.47Fe1.99,2.0,original
As1.47Co0.96Eu6.81Fe1.99,2.0,original
Ce5.69Co4.41In8.92,2.0,original
Ce5.51Co4.41In8.92,2.0,original
B0.19La1.11P2.89Ru5.45,2.0,original
Pd3.98Sc4.95Sn0.78,2.0,original
Se1.77Ta5.24,2.0,original
As1.47Ba0.64Pd3.98,2.0,original
As0.65Ce5.81FeH3.58,2.0,original
As0.65Ce5.81Fe0.97H3.58,2.0,original
Ho10.97Pd0.31Te7.36,2.0,original
Co2.14Si0.42Th3.56,2.0,original
Ni2.3Si0.25Th3.56,2.0,original
C0.24La1.1Ni2.3,2.0,original
C0.24La1.09Ni2.3,2.0,original
Pd1.94S2.07,2.0,original
Bi1.47Ce0.41Pr0.67S2.07,2.0,original
Bi3.16Ca1.05,2.0,original
Bi2.49Pb1.18Pd1.94,2.0,original
Al0.98Nb6.17Sn1.66,2.0,original
As1.47Ba0.1Co0.77Fe2.05K2.59,20.0,original
As1.47Eu6.81Fe2.07Ir0.2,20.0,original
Ce0.41Cu0.13La1.11Nd4.34O0.47,20.0,original
Al0.89Nb3.63,20.0,original
Al0.66Ge0.15Nb3.63,20.0,original
Al0.68Ge0.13Nb3.63,20.0,original
As1.47Ca1.05Co0.33Fe2.17,20.0,original
As0.65F0.41Fe0.89La1.11Zn0.17,20.0,original
As0.65F0.41Fe0.83La1.11Zn0.27,20.0,original
As0.65FeNa3.91,20.0,original
As1.47Ba0.64Fe2.18,20.0,original
Cu0.13La2.22O0.48,20.0,original
Bi1.47Cu0.13La0.25O1.05Pb3.13Sr2.52,20.0,original
Ce0.47Cu0.13La1.11Nd4.29O0.47,20.0,original
Cu0.76La1.26O1.09Pb6.37,20.0,original
Ba1.72Cu1.39O1.04Y1.8,20.0,original
Cu0.13La2.15Nd0.35O0.48,20.0,original
Cu0.12La2.26O0.48,20.0,original
Ce0.83Cu0.13La1.11O0.48Pr0.62,20.0,original
Al0.72Ge0.11Nb3.63,20.0,original
Al0.94Nb3.63,20.0,original
Al0.88Nb3.63,20.0,original
Al0.87Nb3.63,20.0,original
Nb0.78,20.0,original
Al0.11Nb0.78,20.0,original
Al0.72Ge0.17Nb3.58,20.0,original
Al0.77Nb3.63,20.0,original
Ga1.1Nb3.63,20.0,original
As1.47Fe1.53Ru1.53Sr1.46,20.0,original
Ce0.71Cu0.13O0.47Sm12.69,20.0,original
Ca2.09Cl16.44Cu0.13Na0.58,20.0,original
Al0.11Nb0.79,20.0,original
Al0.56Ge0.23Nb3.63,20.0,original
B1.44Mg3.17,20.0,original
As14.67Ca11.43Fe12.54La0.61Pt7.15,20.0,original
As0.65F0.46Fe0.77La1.11Ru0.41,20.0,original
Cu0.13La2.19O0.45Sr0.14,20.0,original
Cu0.13La0.83O0.45Sm6.8,20.0,original
Cu0.13La2.43O0.48,20.0,original
Al0.95Nb3.63,20.0,original
Al0.8Nb3.63,20.0,original
Sc4.95,20.0,original
As1.47Ba0.64Co0.64Fe2.08,20.0,original
As0.65F1.35FeLa1.11,20.0,original
Cu0.13La2.26O0.45,20.0,original
Ba1.35Cu1.39La1.47O1.32,20.0,original
Cu0.13La2.26O0.48,20.0,original
Y2.04,20.0,original
Al0.98Ge0.73Nb3.63,20.0,original
Cu0.13La2.21O0.48Sr0.11,20.0,original
As1.47Ba0.64Co0.32Fe2.17,20.0,original
As14.67Ca11.48Fe12.54Pr0.45Pt7.15,20.0,original
As14.67Ca11.84Fe12.54Ho3.46Pt7.15,20.0,original
As1.47Ca0.86Fe1.02Gd1.25,20.0,original
As0.65Ce5.81Co0.64Fe0.81H3.58,20.0,original
As0.65Fe1.02H1.43La1.11,20.0,original
B1.08Mg3.17,20.0,original
Ge0.73Nb3.63,20.0,original
Cu0.76Gd8.95O1.59Ru2.37Sr3.22,20.0,original
Al0.96Nb3.63,20.0,original
As0.57Ce5.81F0.15Fe1.02P0.1,20.0,original
As1.47Ca0.93Fe2.3Nd0.32,20.0,original
As3.12Ca1.05Fe4.69K5.32Ni0.15,20.0,original
Ce0.71Cu0.13Gd3.51O0.47Sm9.92,20.0,original
Cu0.12La2.55O0.5,20.0,original
Cu0.13La1.9Nd1.34O0.48,20.0,original
Al0.16Nb0.78,20.0,original
Al0.17Nb0.78,20.0,original
As1.47Co0.77Fe2.05Sr1.46,20.0,original
As1.47Fe2.3Na3.12,20.0,original
As0.71Fe2.3P1.63Sr1.46,20.0,original
As1.47Ba0.64Fe1.76Ru1.02,20.0,original
Ce0.71Cu0.13La0.4Nd6.59O0.48,20.0,original
Ce0.71Cu0.13Gd0.34O0.48Sm12.34,20.0,original
Al0.72Ga0.29Nb3.63,20.0,original
As3.12Ba1.72Fe2.28Ti8.52,20.0,original
As0.32F0.15Fe1.02La1.11P0.66,20.0,original
Cu0.13La2.33O0.46,19.0,original
Ba1.72Cu1.2O1.31Y2.04Zn0.58,19.0,original
Ce0.71Cu0.13O0.48Pr1.41,19.0,original
Cu0.13La2.2O0.48Sr0.12,19.0,original
Cu0.13La2.45O0.48,19.0,original
Cu0.13La2.32O0.48,19.0,original
Ce0.71Cu0.13La0.68Nd5.59O0.48,19.0,original
Ba1.72Cu1.39Dy5.18O1.27Pr0.36,19.0,original
Ce0.71Cu0.13Nd9.09O0.47,19.0,original
Cu1.08Fe0.38O1.28Sr3.22Y1.76,19.0,original
Bi3.08Cu0.13La0.83O0.48Sr1.9,19.0,original
Ca0.3Cd5.88Cu0.76O1.31Pb1.51Sr3.22Tb8.3,19.0,original
Ca0.43Cd5.88Cu0.76O1.31Pb1.51Sr3.22Tb6.91,19.0,original
Ba1.29Cu1.39O1.13Sr0.4Yb8.41,19.0,original
Ce0.71Cu0.13Nd8.81O0.48,19.0,original
Ba0.15Bi1.47K2.38O0.2,19.0,original
Cu0.13La2.23O0.48,19.0,original
Cu0.13La2.28O0.48,19.0,original
Cu0.13F1.45Nd9.83O0.48,19.0,original
Ba1.72Cu1.39O1.15Tm7.72,19.0,original
Ce0.71Cu0.13Gd1.57Nd8.16O0.48,19.0,original
Cu0.7Gd8.95Li0.63O1.59Ru2.65Sr3.22,19.0,original
Ce0.71Cu0.13Nd9.09O0.48,19.0,original
Br11.06Ca2.11Cl8.18Cu0.13Na0.54,19.0,original
Br11.06Ca2.04Cl8.18Cu0.13Na0.74,19.0,original
Br11.06Ca1.98Cl8.18Cu0.13Na0.94,19.0,original
Ce0.71Cu0.13La1.11O0.46Pr0.63,19.0,original
Ba1.72Cu1.39O1.14Y2.04,19.0,original
Al0.45Ga0.53Nb3.63,19.0,original
Al0.94Nb3.63,19.0,original
Al0.97Nb3.63,19.0,original
C10.41K16.22,19.0,original
Br11.06Hf4.4Li7.24N5.82Zr1.97,19.0,original
Cl8.18Hf9.88N5.82Na1.1,19.0,original
Cl8.18Hf9.88N5.82Na3.12,19.0,original
Cu0.76Gd8.95O1.59Rh0.15Ru2.23Sr3.22,19.0,original
Cu0.12La2.33O0.48,19.0,original
As0.65F0.62Fe1.02La1.11,19.0,original
As1.47Ca1.05Co0.37Fe2.16,19.0,original
As1.47Ba0.28Co0.77Fe2.05K1.72,19.0,original
As1.47Ba0.64Co0.46Fe2.06,19.0,original
As1.47Ba0.64Co0.46Fe2.03Zn0.13,19.0,original
As0.65Ca1.05Co0.64Fe0.81H3.58,19.0,original
As0.28Fe1.02H0.22P0.75Sm6.8,19.0,original
As0.32F0.15Fe1.02La1.11P0.66,19.0,original
As1.47Ba0.42Fe2.3K1.03,19.0,original
As0.65F0.46Fe1.02La1.07,19.0,original
As1.47Ba0.64Fe2.15Ni0.11,19.0,original
As1.47Ba0.64Co0.86Fe2.02,19.0,original
Bi1.47K2.87O0.15,19.0,original
Cu0.13La2.26O0.48,19.0,original
Ba1.72Cu1.36O1.21Y2.04,19.0,original
Ba1.72Cu1.36O1.2Y2.04,19.0,original
Ba1.42Cu2.02O1.59Y2.04,19.0,original
Al0.87Nb3.63,19.0,original
Ce0.71Cu0.13O0.49Pr1.41,19.0,original
As1.47Ba0.64Fe2.19,19.0,original
As0.65Fe1.02La,19.0,original
As1.47Ba0.64Fe1.64Ru1.3,19.0,original
As1.47Ba0.64Fe2.18,19.0,original
As1.47Ba0.64Co0.77Fe2.05,19.0,original
As14.67Ca8.71Ce16.84Fe12.54Pt7.15,19.0,original
As14.67Ca9.32Fe12.54Nd11.58Pt7.15,19.0,original
Ce0.71Cu0.13O0.52Pr1.41,19.0,original
Cu0.13La2.36O0.48,19.0,original
Cu0.13La2.39O0.48,19.0,original
Ce0.71Cu0.13Gd4.42O0.47Sm9.23,19.0,original
Al0.98Nb3.63,19.0,original
Al0.96Nb3.63,19.0,original
As0.65F0.51Fe0.95Sm6.8,19.0,original
As0.65FeNa3.91,19.0,original
As3.12Ba1.72Fe2.3Ti8.52,19.0,original
Ba0.27Bi1.47K1.78O0.19,19.0,original
Ba1.72Cu1.39O1.21Pr0.36Y0.85,19.0,original
Ba0.13Bi1.47K2.49O0.2,19.0,original
Al0.18Nb0.8,19.0,original
Al0.2Nb0.76,19.0,original
Al0.63Ga0.33Nb3.63,19.0,original
As14.67Ca12.24Fe12.54Ir6.85,19.0,original
Ba1.72Cu1.39O1.13Y2.04,19.0,original
Cu0.13La2.33O0.48,19.0,original
Cu0.12La2.32O0.48,19.0,original
Ba0.1Bi1.47K2.59O0.2,19.0,original
Ce0.71Cu0.13O0.48Sm12.69,19.0,original
Ga0.24Si0.16V2.32,19.0,original
Ga1.1Si0.25V2.32,19.0,original
Al0.14Nb0.78,19.0,original
Al0.19Nb0.78,19.0,original
Nb3.63Si0.25,19.0,original
As1.47Ba0.64Co0.33Fe2.17,19.0,original
As14.67Ca11.72Fe12.54Pt7.15Y0.65,19.0,original
As0.65F0.46Fe1.02La1.04,19.0,original
As1.47Fe2.3Na3.12,19.0,original
As0.65Fe1.02Na3.91,19.0,original
Al0.21Ga0.13Nb0.57,19.0,original
Al0.77Ga0.18Nb3.63,19.0,original
Cu0.13F1.98Nd9.83O0.36,19.0,original
Cu0.13F1.45Nd9.83O0.39,19.0,original
Ce0.71Cu0.13Gd1.7Nd8.09O0.48,19.0,original
Ce0.71Cu0.13O0.48Pr1.39,19.0,original
Co4.41Ga5.72Pu33.39,19.0,original
Nb0.85,19.0,original
Al0.95Nb3.63,19.0,original
Al0.93Nb3.63,19.0,original
As0.65F0.67Fe0.77Ru0.41Sm6.8,19.0,original
As1.47Ca1.05Co0.33Fe2.17,19.0,original
As1.47Ba0.64Co0.29Fe2.18,19.0,original
As0.65Fe1.02La0.84Sm0.29,19.0,original
As1.47Ba0.64Co0.36Fe2.11,19.0,original
Ce0.71Cu0.13La0.97Nd4.59O0.48,19.0,original
Ba0.21Bi1.42K2.05O0.2,19.0,original
Nb3.63Sn0.69,19.0,original
Al0.18Nb0.75,19.0,original
Al0.92Nb3.63,19.0,original
Al0.91Nb3.63,19.0,original
Al3.08Nb3.63,19.0,original
Ca2.14Cl16.44Cu0.13Na0.42,19.0,original
As0.65Ca1.05F5.12Fe0.83Rh0.15,19.0,original
As1.47Fe2.3Na3.51,19.0,original
Fe1.28H3.58Li5.77S0.57Se0.13,19.0,original
Cu0.13La2.12O0.48Sr0.22,19.0,original
Ba1.72Cu1.39O1.29Pr0.4Yb4.41,19.0,original
Al0.17Nb0.78,19.0,original
Nb3.63Sn0.78,19.0,original
Nb0.73Sn0.15,19.0,original
Al0.36Nb0.49,19.0,original
Nb3.63Sn0.73,19.0,original
In0.15Nb3.63Sn0.64,19.0,original
Nb3.63Sn0.7,19.0,original
Nb3.44Sn0.78Ta0.69,19.0,original
As0.65Fe1.02Li7.24,19.0,original
As0.65Fe0.88Sm6.8,19.0,original
As1.47Ba0.1Fe2.05K2.59Zn0.38,19.0,original
As0.65F0.46Fe0.64La1.11Ru0.69,19.0,original
Nb3.63Sn0.64,19.0,original
Al0.41Nb0.47,19.0,original
Nb3.63Sn0.69Tl0.32,19.0,original
Nb3.63Pb0.37Sn0.64,19.0,original
Cu0.13La2.29O0.48,19.0,original
Ce0.35Cu0.13La2.42O0.48,19.0,original
Ga0.53V2.32,19.0,original
Nb0.75Sn0.14,19.0,original
Nb3.63Sn0.64Tl0.55,19.0,original
Ga0.24Nb0.78,19.0,original
Cl8.18Hf1.9Li7.24N5.82Zr2.93,19.0,original
As0.4Ce5.81F0.15Fe1.02P0.47,19.0,original
As0.65F0.93Fe0.89Sm6.8Zn0.17,19.0,original
As14.67Ca11.5Fe12.54La0.54Pt7.15,19.0,original
Ga0.12Nb3.63Sn0.51Tl0.55,19.0,original
Nb3.63Sn0.51Tl0.55,19.0,original
Ga0.12Nb3.63Pb0.37Sn0.51,19.0,original
Bi2.32Cu0.13La0.4O1.05Pb1.51Sr2.34,19.0,original
Cu0.76La1.26O1.43Pb6.37,19.0,original
Cu0.12La2.3Mn0.24O0.48,19.0,original
Nb0.8Sn0.55,19.0,original
Al0.77In0.24Nb3.63,19.0,original
Al0.87Nb3.63Zn0.17,19.0,original
Al0.27Ga0.72Nb3.63,19.0,original
Al0.3Ga0.7Nb3.63,19.0,original
Nb3.44Sn0.78Zr0.42,19.0,original
Nb3.25Sn0.78Zr,19.0,original
Cu0.13La1.23O0.48Sm4.84,19.0,original
As1.47CoFe1.98Sr1.46,19.0,original
As3.12Eu6.81Fe4.55Ni0.41Rb5.68,19.0,original
Nb3.63Sn0.51,19.0,original
Bi0.12Ga0.18Nb3.63Sn0.42,19.0,original
Cu0.76Gd8.95O1.59Ru1.53Sn0.25Sr3.22,19.0,original
Nb3.63Pb0.37Sn0.51,19.0,original
Ga0.12Nb3.63Sn0.51,19.0,original
In0.15Nb3.63Sn0.51,19.0,original
Ce0.71Cu0.12O0.49Pr1.41,19.0,original
Ba0.21Bi1.47K2.05O0.2,18.0,original
Cu0.13La0.54Nd6.09O0.48Th0.46,18.0,original
C10.41K16.22,18.0,original
Bi3.16Ca0.43Cu0.76O1.69Sr3.22Y0.85,18.0,original
Cu1.27Sr3.22Y2.04,18.0,original
Bi3.16Cu0.13O1.12Sr2.87,18.0,original
Ba1.72Co1.91Cu1.11O1.32Y1.8,18.0,original
Bi3.08Cu0.13Nd2.84O0.48Sr2.25,18.0,original
Ca2.17Cl16.44Cu0.13K0.41,18.0,original
Ba0.64Cu1.39O1.29Pr0.44Sr1.46Y0.61,18.0,original
Ce0.71Cu0.13O0.46Pr1.32,18.0,original
Ce0.71Cu0.13O0.47Pr1.41,18.0,original
Ba0.15Bi1.47K2.38O0.2,18.0,original
Cu0.13La2.19Nd0.35O0.48,18.0,original
Al0.98Ca0.43Cu0.76Ho5.45O1.33Sr3.22,18.0,original
Cu0.13Nd0.79Sr1.12,18.0,original
Ce0.71Cu0.13Nd8.63O0.48,18.0,original
Ba1.72Cu2.15Er0.68La2.4O2.11,18.0,original
Cu0.13La2.44O0.48,18.0,original
Cu0.13La1.16O0.48Pr0.63,18.0,original
Ce0.71Cu0.13Nd9.09O0.48,18.0,original
Cu0.13La2.22O0.48Sr0.1,18.0,original
Cu0.13La2.23O0.48,18.0,original
Cu0.12La2.3O0.48,18.0,original
Cu0.13F2.5Nd9.83O0.48,18.0,original
Ba1.18Cu1.39Gd8.95O1.21Sr0.58,18.0,original
Cu0.13La2.19O0.48Sr0.14,18.0,original
Ba1.72Cu1.36O1.16Y2.04,18.0,original
Ce0.71Cu0.13Gd3.24Nd7.24O0.48,18.0,original
Cu0.13La2.4O0.48,18.0,original
Ce5.81Cu0.76Mo1.1O2.15Sm10.26Sr3.22,18.0,original
Br22.17Ca1.98Cu0.13Na0.94,18.0,original
Br22.17Ca1.86Cu0.13Na1.33,18.0,original
Nb3.63Sn0.78,18.0,original
Nb3.63Sn0.72,18.0,original
Nb3.63Sn0.74,18.0,original
Nb3.63Sn0.6,18.0,original
Al0.18Nb0.78,18.0,original
Al0.98Nb3.61,18.0,original
Al0.98Nb3.59,18.0,original
Al0.93Nb3.63,18.0,original
C10.41Cs31.6,18.0,original
B1.62Mg2.78,18.0,original
Al0.24B1.62Mg2.19,18.0,original
C0.41Y4.44,18.0,original
Nb3.63Sn0.69,18.0,original
Nb1.1Sn2.54,18.0,original
Nb3.25Sn0.78Ta1.49,18.0,original
Nb3.63Sn0.73,18.0,original
Nb3.63Si0.25,18.0,original
Cu0.13La1.96Na1.57O0.48,18.0,original
As0.65F0.2Fe1.02La1.11,18.0,original
As0.65Fe1.02Li7.24,18.0,original
Co4.41Ga5.72Pu33.39,18.0,original
As0.65F0.62Fe1.02La1.11,18.0,original
As0.65Fe1.02La0.78Sm0.57,18.0,original
As0.65Fe0.95Sm6.8,18.0,original
As1.47Ba0.31Co0.66Fe2.08K1.54,18.0,original
As0.65Fe1.02Na3.51,18.0,original
Fe1.8Nb0.8S0.99Se0.52,18.0,original
As1.47Co0.86Eu1.27Fe2.02Sr1.11,18.0,original
As1.47Eu3.35Fe2.17K2.59,18.0,original
As1.47Ba0.42Fe2.3K1.01,18.0,original
As1.47Ba0.48Fe2.3K0.69,18.0,original
As1.47Ba0.64Co0.46Fe2.12Mn0.14,18.0,original
As1.47Ba0.32Fe2.3Na1.14,18.0,original
As1.47Ba0.64Fe2.19,18.0,original
In0.15Nb3.63Sn0.51,18.0,original
Nb3.63Sn0.51Tl0.55,18.0,original
Nb3.63Sn0.64,18.0,original
Al0.15Nb0.83,18.0,original
Nb0.47Sn0.34,18.0,original
Cu0.13La2.33O0.48,18.0,original
Cu0.13La2.26O0.48,18.0,original
Nb3.63Sn0.76,18.0,original
Nb3.63Sn0.71,18.0,original
N4.52Nb1.1,18.0,original
Al0.98Nb3.63,18.0,original
Al0.11Nb0.78,18.0,original
Al0.16Nb0.78,18.0,original
Al0.68Nb3.7,18.0,original
N2.86Nb1.1,18.0,original
Nb3.44Sn0.78Ti0.51,18.0,original
Nb3.06Sn0.78Zr1.58,18.0,original
Ce0.71Mn1.23Nd9.09O0.48,18.0,original
Cu0.12La2.29O0.48,18.0,original
As0.65Fe1.01Na3.91,18.0,original
Al0.12Nb0.8,18.0,original
Nb3.63Pb0.53Sn0.42,18.0,original
Nb3.63Pb0.37Sn0.51,18.0,original
Al0.93Nb3.63Sb0.53,18.0,original
Cu0.13La2.12O0.48Sr0.22,18.0,original
Ba1.72Cu1.36O1.19Y2.04,18.0,original
Ce0.71Cu0.13Gd0.89O0.48Sm11.93,18.0,original
Cu0.13La2.39O0.48,18.0,original
Ba1.61Cu1.98O1.59Y2.04Zn0.11,18.0,original
N4.34Nb0.91Ti0.51,18.0,original
N3.75Nb1.1,18.0,original
Nb0.71Sn0.11Ta0.21,18.0,original
Ga0.18Nb3.63Sn0.6,18.0,original
Nb3.32Sn0.78Ta1.22,18.0,original
N4.04Nb1.1,18.0,original
Al0.91Nb3.63,18.0,original