formula,Tc
La1F0.5Bi1S2O0.5,5.23
Pd0.259Zr0.741,5.22
Nb3Rh0.95Pd0.05,5.22
Nb3Pd0.02Rh0.98,5.21
Nb3Rh0.95Pd0.05,5.21
Ir0.92Pt0.08Te2,5.21
Ba1Ti2Sb1.4Sn0.6O1,5.21
Sn0.336Pb0.504In0.16Te1,5.21
La1Bi1S2F0.5O0.5,5.2
La1Ru2.917Fe0.083Si2,5.2
Co0.455Zr0.545,5.2
Sn0.84In0.16Te1,5.2
Pb1Se1Eu1S1,5.2
Mo0.3Nb0.7,5.2
In0.45Tl0.55,5.2
Sr0.062Bi2Se3,5.2
La0.8Ti0.2Bi1S2O1,5.2
La1F0.5Bi1S2O0.5,5.2
La1F0.5Bi1S1.6Se0.4O0.5,5.2
Ir2Lu1,5.2
Nb0.6Pd0.4,5.2
Bi1Li1,5.2
Lu0.1Dy0.9Ni2B2C1,5.2
La0.4Ce0.6Ru3Si2,5.2
Sr0.065Bi2Se3,5.2
Th1Co1C2,5.2
Ir3Th1,5.2
Ir2.5Sc1,5.2
Y2Pd0.6Pt0.4Ge3,5.2
Ca1Al0.74Si1.26,5.2
Ce1Au2Si2,5.2
Rb0.33W1O3,5.2
K1Tl1.5C8,5.2
Al2Gd0.002La0.998,5.2
Cu0.95Se2Zn0.05,5.2
Nb0.38Re0.62,5.2
La3Te4,5.2
Fe0.5Ni0.5Zr2,5.2
Pd1Te1.04,5.2
Ba1Ni2Ge0.6P1.4,5.2
Ce1Bi1S2F0.5O0.5,5.2
Sr1Pt1As1,5.2
Cu0.05Ir1Te1.7Se0.3,5.2
La1F0.6Bi1S2O0.4,5.2
La0.85Ce0.15Ru2,5.2
Rh0.381Zr0.619,5.19
Ni0.411Zr0.589,5.19
Ni0.472Zr0.528,5.19
Nb3Rh0.9Ru0.1,5.19
Tm0.84Lu0.16Fe3Si5,5.185
Ni1Zr2,5.185
Ni1Zr2,5.18
Cu1Se2,5.18
Ir0.02Nb3Rh0.98,5.18
Nb0.38Re0.62,5.17
Nb3Rh0.98Ir0.02,5.17
Co1U6,5.17
Pd2Yb1Sn1,5.17
Ru2Y1,5.17
Ru2Y1,5.16
Nb3Rh0.98Os0.02,5.16
Nb3Rh0.95Ru0.05,5.15
Nb3Rh0.98Ru0.02,5.15
Nb3Os0.02Rh0.98,5.15
Nb3Rh0.98Os0.02,5.15
Pd2Yb1Sn1,5.15
Y2Pd0.5Pt0.5Ge3,5.15
Bi2Se3,5.14
In0.005Tl0.995,5.14
Pd2Y0.95Gd0.05Sn1,5.13
Si2Th1,5.13
Si1Th1,5.13
Cu0.55Zn0.45Ir2S4,5.12
Co1U6,5.12
Cu0.1Ir1Te2,5.12
La3Co3.5Ru0.5Sn13,5.12
La0.995Ce0.005Ni1C2,5.12
Na0.26Co1H2.6O3.3,5.12
Lu1Ni1B1.1C0.9,5.11
Lu1Ni1B1C0.85,5.11
Yb0.2Mo1S2,5.11
Pd2Sc1Pb1,5.1
Pd2Lu1Pb1,5.1
As1,5.1
Cd1Mo5S6,5.1
Ge1.62Y1,5.1
Ir1.5O0.5Y1,5.1
Mn0.05Rh0.04Ti0.91,5.1
Nb0.05Rh0.04Ti0.91,5.1
Re0.15W0.85,5.1
Ru2Zr1,5.1
Tl1,5.1
Ir0.37Nb0.63,5.1
Y1Ir1.5Os0.5,5.1
Ag1In2,5.1
Ir0.5Os0.5,5.1
Si2Th1,5.1
Y0.7Ca0.3C2,5.1
Pr1Ru4As12,5.1
Ho1Ni1.972Co0.056B2C1,5.1
Y2Fe3Si5,5.1
La3Ni1,5.1
Cd1Mo6Se8,5.1
Sm1.2Mo6S8,5.1
La13Ga8Sb21,5.1
La1Rh1Al1,5.1
Ce1Ru1.95Co0.05,5.1
Mn1U6,5.1
La2.406Pr0.594Tl1,5.1
Rh0.01Ti0.99,5.1
Lu1B2C2,5.1
Mo6Te5I3,5.1
Bi1.5La4Pb1.5,5.1
La0.996Tb0.004Al2,5.1
Lu1Ru2Si2,5.1
La1Ni1As1O1,5.1
Pd2Hf1In1,5.1
Ba1Ga1Ge1,5.1
Ni2Zr0.85Nb0.15Ga1,5.1
Yb1Ga1.1Si0.9,5.1
Sr1Pt1As1,5.1
Zr0.361Co0.305Al0.333,5.1
In1N1,5.1
Bi6S5O8,5.09
Yb1Ga1.1Si0.9,5.09
Sr1Pt1As1,5.09
La0.995Ce0.005Ni1C2,5.09
Ba1Ir2As2,5.09
Cu0.04Pd1Te2,5.08
Sr1Ta2S5,5.08
Cr0.75Ru0.25,5.08
Ce0.5Pr0.5Bi1S2O1,5.07
Bi1Sb1Te2Se1,5.07
Tl1,5.07
Tl1,5.05
Cu0.06Ti1Se2,5.05
Nb3Rh0.95Os0.05,5.05
La0.998Gd0.002Al2,5.05
Ba1Fe1.952Ni0.048As2,5.05
Ir0.85Rh0.15Te2,5.04
Eu3Bi2S3Se1F4,5.04
Tl1,5.04
Au0.2Sn0.8,5.04
Be0.9Ni0.1,5.04
Ir0.05Nb3Rh0.95,5.03
Tl1,5.03
Pt1Sn4,5.03
Hf0.909W0.091,5.03
Nb3Rh0.95Ir0.05,5.02
Th1Si1.95Co0.05,5.02
Tl1,5.02
Mo3Sb7,5.02
Cu1Se2,5.02
La1Rh1Bi1,5.01
Pd1Zr2,5.01
Nb0.4Re0.6,5.01
Nb0.4Re0.6,5
Sn0.798Ge0.042In0.16Te1,5
Al0.08V0.92,5
Ti0.595V0.255Al0.15,5
Th1Ir1.3Os0.7,5
Pd2Yb1Sn1,5
Bi1.1Nb1Se3.1,5
La0.8Hf0.2Bi1S2O1,5
Ru2Sc1,5
Co1U6,5
Mo3Sb7,5
Nd0.03La0.97Ni1C2,5
Ge3Y1,5
Rh0.4Ta0.6,5
Ta0.5V0.5,5
Rh2Ta3,5
La5Ru2,5
In1N1,5
Ba1Fe1.936Co0.044Cu0.02As2,5
La0.8Ti0.2Bi1S2O1,5
Ce0.2Nd0.8F0.3Bi1S2O0.7,5
Cu0.15Ir1Te1.5Se0.5,5
Tl0.6Bi2Te3,5
Eu2Sr1Bi2S2.5Se1.5F4,5
Pd0.278Zr0.722,5
Hf0.96Rh0.04,5
Sr1Fe1.78Ni0.22As2,5
Er1Ir4B4,5
Pr1Fe1P1F0.1O0.9,5
Tl1,5
Mn0.025Ti0.975,5
Pr1Ru4As12,5
La7Ir3,5
Ce0.2Nd0.8Bi1S2F0.3O0.7,5
Ce1Co1In5,5
Ag0.94Tl0.06,5
Ba1Hg1,5
Ir3La7,5
Mn1U6,5
Ir0.37Nb0.63,5
Sn0.756Ge0.084In0.16Te1,5
La1Rh3B2,5
La1Rh1Si3,5
Ti4O7,5
Ni0.509Zr0.491,5
Li2B1Pd0.9Pt2.1,5
Fe0.15Ni0.85Zr2,5
Nb3Se4,5
Ba1Ti2Sb1.6Sn0.4O1,5
La1Fe1As0.8P0.2O1,5
Ni0.05Ta1S2,5
C3Na1,5
Ca1Cu0.33Si1.67,5
Pd2Y1Pb1,5
Nb2Se3,5
Tm4Rh6Sn19,5
Be2Nb3,5
Be5Pt1,5
Cd0.17Tl0.83,5
Ga3Lu1,5
Ir0.1Nb0.9,5
Ir0.265O0.085Zr0.65,5
La1Si2,5
N0.75V1,5
Pd5Se2,5
Re0.05Rh0.04Ti0.91,5
Rh0.04Ta0.05Ti0.91,5
Pd1Te1,5
Ag1In2,5
Nb3Rh0.9Os0.1,5
Ir0.265O0.035Ti0.65,5
Pd2.8Se1,5
Cu1.2Co1.8S4,5
Yb1Pd2Sn1,5
Hf1Rh1Si1,5
Pr1Th3.4Ru0.6B4,5
Lu3Ru4Ge13,5
Y2Cl2C2,5
Cu1.5Co1.5S4,4.99
Nb3Rh0.9Os0.1,4.99
Ce1Co1In5,4.98
Ga3Lu1,4.98
Ta2Zr1,4.98
S2Ta1,4.97
Se3Ta1,4.97
La1Si2,4.97
Bi2La4Pb1,4.96
Lu3Rh4Ge13,4.95
Ta1Ge2,4.95
Pd1Te1,4.94
Y2Fe3Si5,4.94
Pr1Ru4As12,4.94
La1Ir1Si1,4.93
Cu0.06Ti1Se2,4.93
Au1Pd1In1Y1,4.93
Ce1Co1In5,4.93
Ni2Zr0.7Nb0.3Ga1,4.93
Dy0.85Tm0.15Ni2B2C1,4.92
Pb1.16Ti2Se5.16,4.92
Ca1Pt1Si3,4.92
Ce1Co1In5,4.92
Sr1Si1.9Ni0.1,4.92
Lu3Ru4Ge13,4.92
Sb3Zr5,4.92
Au1Te2,4.91
La1Rh1Si3,4.91
Cu0.2Ir1Te1.5Se0.5,4.91
Ti0.85Ta0.15Se2,4.91
Mo3Sb7,4.9
Eu0.5Ce0.5F1Bi1S2,4.9
Tl1Ni2S2,4.9
Ce1Co1In5,4.9
Ce1Bi1S2F0.45O0.55,4.9
Co1U6,4.9
As2Cd1Sn1,4.9
Sc1Pd2Sn1,4.9
La0.93Nd0.07Pt1Si1,4.9
Cr0.33Re0.67,4.9
La0.9Y0.1Ni1C2,4.9
Sn0.8Ag0.2Te1,4.9
Ir0.95Pt0.05Te2,4.9
Ti0.85Ta0.15Se2,4.9
Ti0.8Ta0.2Se2,4.9
La1Pt0.5Ni0.5Si1,4.9
Mo0.15V0.85,4.9
Nb3Rh0.98Co0.02,4.9
Co0.02Nb3Rh0.98,4.9
Ba8Si23Ge23,4.9
Rh0.88Ru0.12Se2,4.9
Ir0.92Pt0.08Te2,4.9
Sn0.665Pb0.285In0.05Te1,4.9
Th7Fe0.72Co2.28,4.9
Y2Pd1Si2.25C0.75,4.9
La0.96Gd0.04Ru2,4.9
Au1.8Pd0.2In1Y1,4.9
Sr1Fe1.78Ni0.22As2,4.89
Ce1Bi1S2F0.5O0.5,4.89
Cu0.737Sn0.263,4.89
Ce1Co1In5,4.88
Ag1Th2,4.88
Pb1Nb1S3,4.88
Nb0.85Pd0.15,4.87
Y2Pd0.3Pt0.7Ge3,4.87
Ce1Co1In5,4.87
Ce1Co1In5,4.86
Ce1Rh1In5,4.86
Ce1Co1In4.999Hg0.001,4.86
Ce1Co1In4.998Hg0.002,4.86
Bi1Na1,4.86
Bi0.57Sn0.43,4.86
Bi2Y3,4.86
Ir0.34Nb0.66,4.855
Pd1.75Te2,4.85
Ho0.9La0.1Ni2B2C1,4.85
Ce1Co1In5,4.85
Ce1Rh1In5,4.85
La6Ni2Sn1,4.85
Ir0.34Nb0.66,4.85
Pd1.75Te2,4.84
Th1Ir0.1Os1.9,4.84
Mo3Sb7,4.84
Ce1Co1In5,4.84
Ga9Ir2,4.84
Tm5Rh6Sn18,4.83
Ce1Bi1S2F0.33O0.67,4.83
Ce1Co0.9Ru0.1In5,4.82
Sn0.776Pb0.194In0.03Te1,4.82
Ce1Co1In5,4.82
Ir3La7,4.82
Ag2Pd3S1,4.81
Ce1Rh1In5,4.81
Pd0.287Zr0.713,4.81
Ge2La1,4.81
Ir3La7,4.81
Ru2Sc1,4.8
Y2Pd1Ge2Si1,4.8
Cu0.055Ti1Se2,4.8
Ce1Co1In5,4.8
Ce1Au2Si2,4.8
Al2La1,4.8
Re0.83Ru0.17,4.8
Sn0.714Ge0.126In0.16Te1,4.8
Ce1Rh1In5,4.8
Ir0.37Nb0.63,4.8
Ce1Co1In4.995Cd0.005,4.8
Nb2Pd1S3.75Se1.25,4.8
La3Pd4Ge4,4.8
Lu1Ru2,4.8
Ti0.9Ta0.1Se2,4.8
Y1Os1B2,4.8
La0.7Ti0.3Bi1S2O1,4.8
Th1Ir2Si2,4.8
Te3Tl5,4.8
Mn1U6,4.8
Pd1.5Te2,4.8
Ce1Co1In4.996Sn0.004,4.8
Cu0.2Ir1Te1.8Se0.2,4.8
Ce0.5Pr0.5Bi1S2O1,4.8
Am1,4.8
Na0.33Co1H2.6O3.3,4.8
Bi2Rh1,4.8
Hf1V2H1.6,4.8
Au0.41Ge0.59,4.8
Ba0.14O3W1,4.8
Bi1Cu1,4.8
Bi1Re2,4.8
Co0.92Mn0.08U6,4.8
In1Te1,4.8
La0.55Lu0.45,4.8
Li0.3O3W1,4.8
Os0.15W0.85,4.8
Pd0.67Se0.33,4.8
Pd1.25Te2,4.8
Nb3Sb1,4.8
Pd2Se1,4.8
Re24Sc5,4.8
Bi2Ir1,4.8
La0.55Lu0.45,4.79
Nb1Se2,4.79
Cu0.5Zn0.5Ir2S4,4.79
Cu0.5Zn0.5Ir2S4,4.78
Ce1Rh1In5,4.78
Cu1S1.8Se0.2,4.78
Er1.2Mo6S8,4.78
Ce1Co1In5,4.77
Y2Pd1Si2C1,4.77
Cu1.75Co1.25S4,4.77
Y0.92Gd0.08Ru2,4.77
Ir0.4Nb0.6,4.77
Pd1.25Te2,4.77
Ce1Rh1In5,4.76
Yb0.2W1Se2,4.76
Lu1Mo6S8,4.76
Nb0.83Pd0.17,4.75
Ge2La1,4.75
La0.84Pr0.16,4.75
La3Ni1,4.75
Ge2Hf1,4.75
La3Rh4Pb13,4.75
Y4Ir6Sn19,4.75
Ga9Ir2,4.75
La1Rh1Si3,4.75
La1Ir1Si3,4.75
Mo3Sb7,4.75
La3Ni4P4O2,4.75
Ho1Rh1.6Ir2.4B4,4.75
Y1Pd2Al3,4.75
Pd17Se15,4.75
Ga3Lu1,4.74
Li0.9Mo6O17,4.74
Sb3Zr5,4.74
Ba1Ti2Sb1.8Sn0.2O1,4.74
Ba1Ti2Sb1.7Sn0.3O1,4.74
La3Co4Sn13,4.73
Sn0.75Ag0.25Te1,4.73
Cs2Cr3As3,4.73
Eu0.5Ce0.5Bi1S2F1,4.72
Eu0.5La0.5F1Bi1S2,4.72
La1F0.5Bi1S2O0.5,4.72
La1Bi1S2F0.5O0.5,4.72
Tl1Ni2Se1.4S0.6,4.72
Pd1Bi1.65Pb0.35,4.72
Sr0.5Ce0.5F1Bi1S2,4.72
Ba1Pt1As1,4.71
Ag1Th2,4.71
Cu0.5Zn0.5Ir2S4,4.71
Tm5Rh6Sn18,4.71
Zr1Pd2In1,4.71
La1Bi1S1.8Se0.2F0.5O0.5,4.71
Ce1Co1In4.963Hg0.037,4.71
La1F0.5Bi0.9S2Sb0.06O0.5,4.7
Rh0.401Zr0.599,4.7
In1Te1,4.7
Ir2Y1,4.7
Ce1Co1In4.989Cd0.011,4.7
Ce1Co0.8Ru0.2In5,4.7
Hf1Rh1Si1,4.7
Pd0.12Ti1Se2,4.7
Th1Si1.9Co0.1,4.7
La1F0.5Bi1S1.8Se0.2O0.5,4.7
Li0.29Fe1.71S1H1O1,4.7
Li2Pt3B1,4.7
Ge1.9La1,4.7
Ge1.85La1,4.7
Ge1.83La1,4.7
Ge1.81La1,4.7
Ce1Co1In5,4.7
B2Os1,4.7
As1Cr1,4.7
La0.85Ce0.15Pt4Ge12,4.7
Eu3Bi2S3.4Se0.6F4,4.7
Ge1Mo3,4.7
Na0.23W1O3,4.7
Ge0.23Mo0.77,4.7
Ir0.7Y0.3,4.7
W2Zr1,4.7
Eu0.011La0.989,4.7
La1Rh1Si3,4.7
Ce0.95Yb0.05Co1In5,4.7
Sn0.552Pb0.368In0.08Te1,4.7
Tl1Ni2Se1.2S0.8,4.7
Nd0.04La0.96Ni1C2,4.7
La3Pd4Si4,4.7
Cd1Hg1,4.7
Eu0.012La0.988,4.7
Rh3Th7,4.7
Cr0.4Re0.6,4.7
Dy1.2Mo6S8,4.7
Ho1.2Mo6S8,4.7
Pd2Sc1Sn1,4.7
Th1Rh0.1Si1.9,4.7
Ce1Co1In4.984Cd0.017,4.7
Ni2Nb1Al1,4.7
Ba1Fe1.856Cu0.088As2,4.7
Ce1Co1In4.984Cd0.017,4.69
Pd0.02Ir1Te2,4.69
Sn0.85Ag0.15Te1,4.69
Mo2.91Ru0.09Sb7,4.69
Bi1Na1,4.68
O3Tl0.03W1,4.68
Mg1C1Ni2.6Ru0.4,4.68
Y2Pt1Ge3,4.68
Sn0.84In0.16Te1,4.68
Ce1Co1In4.875Zn0.125,4.68
Ce1Co1In4.98Cd0.02,4.68
Mo1Te1.6Se0.4,4.67
Pb1Ta1Se2,4.67
Ce0.95Yb0.05Co1In5,4.67
La0.3Ce0.7Ru2,4.67
Ir5La1,4.67
Ir1Zr3,4.66
Cu1Co1.95Ir0.05S4,4.66
Hf0.915Mo0.085,4.66
Ce1Co1In4.75Cd0.25,4.66
Fe0.2Ni0.8Zr2,4.66
Fe0.33Ni0.67Zr2,4.65
Fe0.2Ni0.8Zr2,4.65
Ce1Co0.7Ru0.3In5,4.65
Sr0.58La0.42Bi1S2F1,4.65
Sn0.84In0.16Te1,4.65
Ce0.987Yb0.013Co1In5,4.65
Ba1Pt2As2,4.65
Ce1Rh1In5,4.65
Mo0.16U0.84,4.65
Ge3Rh5,4.65
Ge2Rh5,4.65
Ge3Rh5,4.643
Ce1Rh1In5,4.643
Mo0.031Zr0.969,4.64
Ru0.42V0.58,4.64
Ge2Rh3,4.64
B2Os1,4.64
Ho1.1Ir4B3.6,4.64
La0.6Th0.4Bi1S2O1,4.63
Li2Pt3B0.95Al0.05,4.63
Sn0.84In0.16Te1,4.63
Pr0.5Eu0.5Pt4Ge12,4.62
Ce0.7Pr0.3Bi1S2O1,4.62
Mo0.18U0.82,4.62
Mo0.2U0.8,4.62
Cu0.260Zr0.725Mn0.015,4.62
Ag2In1,4.615
Pd1Te1.06,4.61
Pd1Te1.04,4.61
Ni0.03V0.97,4.61
Hf0.93Mo0.07,4.61
Er1Rh1.6Ir2.4B4,4.61
U0.85Mo0.15,4.6
Ba1Cu0.4Si1.6,4.6
Cs1Fe2As2,4.6
La0.983Lu0.008Tb0.009,4.6
La1.85Sr0.15Cu0.965Ni0.035O4,4.6
Y0.44Pr0.56Ba2Cu3O6.93,4.6
La1.85Sr0.15Cu0.97Zn0.03O4,4.6
Na0.32Co1H2.6O3.3,4.6
Co3Y4,4.6
Pd2Tm1Pb1,4.6
Be0.871Zr0.129,4.6
Pd0.306Zr0.694,4.6
Te3Zr1,4.6
Al1Mo6Pd1,4.6
C1Ir2W3,4.6
Fe0.5Ni0.5U6,4.6
In1Sb1,4.6
Mo3Sb4,4.6
Pt1Sb1,4.6
Cr0.6Ru0.4,4.6
Dy1Ni1.985Co0.03B2C1,4.6
Fe3Th7,4.6
Ce1Rh1In5,4.6
Y1.2Mo6S8,4.6
Er1Ir4B4,4.6
La1Rh1Sb1,4.6
Y1Rh1Sb1,4.6
K0.1W1O2.9F0.1,4.6
Cs0.1Li0.1W1O2.8F0.2,4.6
Al1Pd1Mo6,4.6
K2Mo15Se19,4.6
Er1.2Mo6S8,4.6
Se3Ta1,4.6
La7Ni3,4.6
Ca3Rh4Ge13,4.6
B2Os1,4.6
Mo3Sb7,4.6
Ba1Ir2P2,4.59
Pd2Zr0.9Nb0.1Al1,4.59
Ta1S2,4.58
Ce1Pt2In7,4.58
Ba1Ir2P2,4.58
Bi4Te3,4.58
Ga3Sc1,4.58
Sr1Pt2Sb2,4.57
Sr1Pd1Ni1Ge2,4.57
Nb3Pd0.7Se7,4.57
La1Pd0.85Bi2,4.57
Fe0.98Ni0.02Se0.3Te0.7,4.56
La1Bi1S2F0.5O0.5,4.56
Bi2Rh3.5S2,4.56
U0.85Mo0.15,4.55
Sn0.8Ag0.2Te1,4.55
Bi3.93Ag0.07S3O4,4.55
Cs2Cr3As3,4.55
Sr0.5La0.5F1Bi1S2,4.55
Rb1Eu1Fe3.68Ni0.32As4,4.55
Ga5Re1,4.55
Ce0.98La0.02Co1In5,4.55
Rb1,4.55
B4.2W1,4.55
Se2Ta1.1,4.55
Cd3As2,4.54
O0.105Pd0.285Zr0.61,4.54
Pd0.285Zr0.61O0.105,4.54
Fe3Th7,4.53
Th1Ir3B2,4.53
Pt0.43W0.57,4.53
Ce0.9Yb0.1Co1In5,4.53
K0.38W1O3,4.53
Ir0.7Rh0.3Te2,4.53
Th1Ir3B2,4.52
Tl1Ni2Se0.2S1.8,4.52
Pr0.5Eu0.5Pt4Ge12,4.52
Er0.8Y0.2Pd2Sn1,4.52
Mo3Sb7,4.52
Re0.075Ta0.925,4.52
Th1Ir1.4Ru0.6,4.52
La0.85Y0.15Ni1C2,4.52
Ca1Ni1B1N1,4.52
Te3Tl5,4.52
Ca10Bi9.88,4.51
Ir1Nb3,4.51
Nb6Sn5,4.51
Ir2Sc1,4.51
Tm1Rh1.3Sn4,4.51
Be13U1,4.51
Bi1Rh1,4.51
Mo0.22U0.78,4.51
Bi1Rh1,4.505
Cr0.1V0.9,4.5
Sn0.855Pb0.095In0.05Te1,4.5
Sr0.058Bi2Se3,4.5
Cr0.774Ru0.226,4.5
La1.8Nd0.05Ca0.074Ba0.076Cu1O4,4.5
Pd2Sc1Sn1,4.5
Nb0.25Sb0.25Ti0.5,4.5
Te1Y1,4.5
Te1,4.5
Ti0.18V0.72Al0.1,4.5
Ir0.99Pt0.01Te2,4.5
Ce1Co1In4.96Cd0.04,4.5
Ta1Se1.4Te0.6,4.5
Mo3Sb6.975Te0.025,4.5
La0.8Th0.2Bi1S2O1,4.5
Ce1Rh0.9Ir0.1In5,4.5
In0.91Te1,4.5
Au0.27Tl0.73,4.5
C1Ru1,4.5
Ca1Tl3,4.5
C0.848Ta1,4.5
La0.92Nd0.08Pt1Si1,4.5
Zr1Ir1Si1,4.5
Pd0.7Se0.3,4.5
Fe0.36Ni0.64Zr2,4.5
La0.7Th0.3Bi1S2O1,4.5
La0.999Ce0.001Pt1Si1,4.5
N0.7V1,4.5
Tl1Ni2Se0.8S1.2,4.5
Ce0.985Yb0.015Co1In5,4.5
Hf2Rh1,4.5
Mo0.14U0.86,4.5
Bi1Rh1,4.5
Cr2Ru1,4.5
Fe0.3Ni0.7Zr2,4.5
Re0.98Rh0.02,4.5
Nb0.18U0.82,4.5
Nb0.22U0.78,4.5
Nb0.67Pb1S3Ta0.33,4.5
W0.801Zr0.199,4.5
Ta0.03Zr0.97,4.5
La0.8Ce0.2Ru2,4.5
Ce0.98Nd0.02Co1In5,4.5
Nb0.2U0.8,4.49
La1.9Sr0.1Cu0.98Zn0.02O4,4.49
Na0.45Co1H2.6O3.3,4.49
Na0.4Co1H2.6O3.3,4.49
Ce1Cu2Ge2,4.49
Cu0.06Ti2Se2,4.49
Ni0.560Zr0.440,4.49
In1Sb1,4.49
Bi3Ca1,4.48
Co0.94Rh0.06U6,4.48
Co0.5Rh0.5Si2,4.48
Cu1Se1Te1,4.48
Os1Re1Y1,4.48
Rh1Ta1,4.48
Rh0.04Ti0.96,4.48
Rh0.91Ti0.09,4.48
C1Ru1,4.48
Tl0.3W1O3,4.47
Nb0.5Re0.5,4.47
Y1Os1Re1,4.47
Re1Y1Os1,4.47
Mo0.04Ti0.96,4.47
O3Tl0.03W1,4.47
O3Sr0.08W1,4.47
Os1Re1Y1,4.465
Ti0.5Zr0.5,4.465
Lu0.3Dy0.7Ni2B2C1,4.463
Y0.6Tb0.4Ni2B2C1,4.463
Ni1Zr2,4.46
U1Pd2Al3,4.46
Nb3Se4,4.46
Fe1,4.46
Ho1Ir4B4,4.46
Lu1Ru4B4,4.46
Ce1Co1In5,4.46
C6Ir4O2,4.46
Er0.7Tb0.3Ni2B2C1,4.46
Er0.4Tb0.6Ni2B2C1,4.46
Lu0.32Dy0.68Ni2B2C1,4.46
Ce2Rh1In8,4.45
Cs1I1,4.45
V0.745Sb0.208Al0.025,4.45
Cr1Ru2,4.45
Rb0.1Li0.1W1O2.8F0.2,4.45
Rh0.04Ti0.96,4.45
Au1Sc1,4.44
Pd0.24Ti0.76,4.44
Mo6S8,4.44
Ga6Y1,4.43
As1,4.43
Nb2As1C1,4.43
Ce1Ir0.3Co0.7In5,4.43
Lu4.95Yb0.05Ir4Si10,4.43
La1Rh1Sn1,4.425
C1,4.42
Ba1Pt1Si3,4.42
Ni2Zr0.5Nb0.5Ga1,4.42
Sc1Rh2Sn1,4.42
Cs0.3W1O3,4.42
U1Pd2Al3,4.42
Ca1Fe1.6Co0.4As2,4.42
Sr1Fe1.916Co0.084As2,4.416
Sr1Fe1.888Co0.112As2,4.41
Sr0.15Eu0.85Fe1.76Co0.24As2,4.41
Sr0.05Eu0.95Fe1.76Co0.24As2,4.41
Eu1Fe1.76Co0.24As2,4.41
Ce0.98La0.02Co1In5,4.41
Ce0.95Nd0.05Co1In5,4.41
La1Ru2P1.6B0.4,4.41
Sc1Pd2Sn1,4.405
Ta1Se3,4.4
Ba1Pd2As2,4.4
Ce1Fe0.98Co0.02As1H1,4.4
Ce1Fe0.96Co0.04As1H1,4.4
Pd0.2Ho1Te3,4.4
Th1Si1.5Co0.5,4.4
Th1Ni1Si1,4.4
La0.99Ce0.01Ni1C2,4.4
Sm0.02La0.98Ni1C2,4.4
U1Pd2Al3,4.4
Pd1S2,4.4
Ce0.1Pr0.9Bi1S2O1,4.4
Bi2Ca1,4.4
Pd1Bi1.6Pb0.4,4.4
Nb5Sn2Al1,4.4
Ba0.5K0.5Fe1.8Co0.2As2,4.4
Eu1Fe1.82Ir0.18As2,4.4
La1Nd0.9Ce0.1Cu1O3.974,4.4
Nb3Al0.92Ge0.08,4.4
Ga0.251Nb0.749,4.4
Nb3Al0.7Ge0.3,4.4
Nb3Al0.72Ge0.28,4.4
Ca1Fe1.898Co0.102As2,4.4
La1Fe0.9Zn0.1As1F0.1O0.9,4.4
La1Fe0.85Zn0.15As1F0.1O0.9,4.4
Na1Fe0.985Co0.015As1,4.4
Ba1Fe1.904Ni0.096As2,4.4
La1.85Sr0.15Cu0.991Fe0.009O4,4.4
La1.774Sr0.226Cu1O4,4.4
Bi1Pb1Sr1.6La0.4Cu1O6.065,4.4
La1Nd0.89Ce0.11Cu1O3.978,4.4
Pb2Cu2La1.1O6.19,4.4
Y0.9Ca0.1Ba2Cu3O6.03,4.4
La1.72Nd0.1Ba0.18Cu1O4,4.4
La1.8Sr0.2Cu0.983Zn0.017O4,4.4
Pr0.83La1Ce0.17Cu1O4,4.4
Nb3Al0.75Ge0.25,4.39
Nb3Al0.96Ge0.04,4.39
Nb3Al0.91Ge0.09,4.382
Nb3Al0.9B0.1,4.382
Nb3Al0.95Be0.05,4.38
Nb3Al0.9Be0.1,4.38
Nb0.75Al0.02Ge0.05,4.38
Nb0.75Al0.18Ge0.07,4.38
Nb0.75Al0.17Ge0.08,4.38
Nb2.96Al0.759Ge0.322,4.37
Nb3Al0.8Ge0.2,4.37
Ga1Nb3,4.37
Sr1Fe1.4Ru0.6As2,4.365
Sm1.85Ce0.15Cu1O3.98,4.36
Y1Ba2Cu3O6.48,4.36
Ca1.84Na0.16Cu1Cl2O2,4.36
C60K3,4.36
Sm1.85Ce0.15Cu1O4,4.36
Nb0.758Al0.174Ge0.069,4.36
Nb0.75Al0.2Ge0.05,4.35
Nb0.75Al0.21Ge0.04,4.35
Nb0.75Al0.16Ge0.09,4.35
Nb3Al0.9Ge0.1,4.35
Nb3Al0.6Ge0.4,4.35
Mg1B1.8C0.2,4.35
Ca9.35La0.65Pt3Fe10As18,4.35
La1Fe0.8Ru0.2As1F0.11O0.89,4.35
La1.75Sr0.25Cu1O3.921,4.345
Sm1La0.8Sr0.2Cu1O3.925,4.34
La1.92Sr0.08Cu1O4,4.34
Al0.95Be0.05Nb3,4.33
Nb3Al0.97Ge0.03,4.33
Nb3Al0.83Ge0.17,4.33
C60K3,4.33
Sc1,4.33
Ba1Fe1.3Ru0.7As2,4.32
Ba1Fe1.83Co0.17As2,4.32
La1Fe0.982Zn0.018As1F0.28O0.68,4.32
Ba0.5K0.5Bi1O3,4.31
La1.8Ca0.2Cu1O3.917,4.31
Nd1.85Ce0.15Cu1O3.98,4.31
Nd1.85Ce0.15Cu0.999Ni0.001O4,4.31
C60K3,4.31
Pr1.85Ce0.15Cu1O4,4.31
Ca0.1Ba1.65La1.25Cu3O7.01,4.301
Nd1.85Ce0.15Cu0.998Fe0.002O4,4.3
La1.8Sr0.2Cu0.995Zn0.005O4,4.3
Y1,4.3
Al1Ge1Nb3,4.3
C60K3,4.3
Nb3Al0.9Ge0.1,4.3
La1.9Ca0.1Cu1O4,4.3
La1.762Sr0.238Cu1O4,4.3
Ba1Fe1.3Ru0.7As2,4.3
Ba1Fe1.9Co0.1As2,4.3
Pr1.85Ce0.15Cu1O4,4.3
Ca9.39Pr0.61Pt3Fe10As18,4.3
Ca9.68Ho0.32Pt3Fe10As18,4.3
Ca0.85Gd0.15Fe1As2,4.3
Ce1Fe0.83Co0.17As1H1,4.3
La1Fe1As1H0.41O0.59,4.3
Nb0.75Al0.16Ga0.09,4.3
Mg1B1.4C0.6,4.3
Pr1.85Ce0.15Cu1O3.98,4.3
Ge1Nb3,4.3
Nd1.85Ce0.15Cu1O4,4.3
Ca0.5Na0.5Fe2As2,4.3
Na1Fe0.979Co0.021As1,4.3
Ba0.3K0.7Fe2As2,4.3
La1.76Sr0.24Cu1O4,4.3
Nd1.85Ce0.15Cu1O4.03,4.3
Ru0.9Rh0.1Sr2Gd1Cu2O8,4.3
Nb3Al0.98Ge0.02,4.3
Ce1Fe1As0.9P0.1F0.05O0.95,4.3
Ca0.906Nd0.094Fe2As2,4.3
Ba1Fe1.908Ni0.092As2,4.3
Na1Fe0.981Co0.019As1,4.3
Ca1K1Fe3.864Ni0.136As4,4.3
Sm1.45Gd0.4Ce0.15Cu1O3.97,4.3
La2Cu0.98Zn0.02O4.099,4.3
La1.55Nd0.3Sr0.15Cu1O4,4.3
Al0.9As0.05Ga0.05Nb3,4.3
Al0.22Nb0.75Si0.3,4.3
Nb3Al0.95Ga0.05,4.3
Nb3Al0.927Ga0.073,4.3
Nb0.75Al0.23Ge0.02,4.29
C60K3,4.29
Sr1Fe1.8Co0.2As2,4.28
Ba0.2Na0.8Fe2As2,4.28
Sr1Fe2As1.08P0.92,4.28
Ba1Fe1.58Ru0.42As2,4.28
Ba1Fe1.9Ni0.1As2,4.28
Nd1.35La0.5Ce0.15Cu1O4,4.28
Gd0.05Sm1.8Ce0.15Cu1O4,4.27
La1.9Sr0.1Cu0.995Zn0.005O4,4.27
Al0.95B0.05Nb3,4.27
Nb3Al0.75Ga0.3,4.26
Nb3Al0.907Ga0.093,4.26
Nb0.75Al0.225Ga0.025,4.26
Nb0.75Al0.175Ga0.075,4.25
Ba2Ti2Fe1.98Cr0.02As4O1,4.25
Ge1Nb3,4.25
La1Fe1As0.6P0.4F0.05O0.95,4.25
La1.85Ca0.15Cu1O3.942,4.25
Y1Ba2Cu2.7Zn0.3O7,4.25
Pr1.85Ce0.15Cu1O4,4.25
La1.76Sr0.24Cu1O4,4.25
La1.93Ba0.07Cu1O4,4.25
La1.842Ba0.158Cu0.99Ni0.01O4,4.25
Nd1.15La0.7Ce0.15Cu1O4,4.25
Dy0.5Pr0.5Ba2Cu3O6.85,4.25
Nd1.85Ce0.15Cu1O3.98,4.25
Y0.88Ca0.12Sr2Cu2.5Fe0.5O6.89,4.25
Bi1.95Sr1.25La0.8Cu1O4,4.25
Pb0.5Cd0.5Sr2Tb0.6Ca0.4Cu2O7,4.25
Pb0.5Cd0.5Sr2Tb0.5Ca0.5Cu2O7,4.246
Ba1.6Sr0.4Yb0.85Ca0.15Cu3O6.36,4.24
Nd1.794Y0.056Ce0.15Cu1O4,4.24
Ba0.54K0.46Bi1O3,4.24
La1.78Sr0.22Cu0.995Zn0.005O4,4.24
La1.81Sr0.19Cu0.99Zn0.01O4,4.24
Nd2Cu1F0.3O4,4.24
Tm1Ba2Cu3O6.41,4.23
La1.93Sr0.07Cu1O4,4.23
Nd1.665Gd0.185Ce0.15Cu1O4,4.23
Ru1Sr2Gd1Cu1.9Li0.1O8,4.23
Nd1.85Ce0.15Cu1O4,4.23
Ca1.85Na0.15Cu1Br1Cl1O2,4.227
Ca1.8Na0.2Cu1Br1Cl1O2,4.227
Ca1.75Na0.25Cu1Br1Cl1O2,4.22
Pr0.85La1Ce0.15Cu1O3.95,4.22
Y1Ba2Cu3O6.375,4.22
Al0.5Ga0.5Nb3,4.21
Nb3Al0.967Ga0.033,4.21
Nb3Al0.991Ge0.009,4.21
Nb3Al0.5Ga0.5,4.21
C60K3,4.21
Li1Hf0.45Zr0.55N1Br1,4.21
Na0.29Hf1N1Cl1,4.21
Na0.8Hf1N1Cl1,4.21
Ru0.85Rh0.15Sr2Gd1Cu2O8,4.2
La1.85Sr0.15Cu0.984Zn0.016O4,4.2
La1Fe1As1F0.14O0.86,4.2
Ca1Fe1.888Co0.112As2,4.2
Ba0.66K0.34Fe1.8Co0.2As2,4.2
La1.76Sr0.24Cu1O4,4.2
Ba1Fe1.81Zn0.06Co0.13As2,4.2
Ba1Fe1.79Zn0.08Co0.13As2,4.2
Ca1Fe0.83Co0.17As1H1,4.2
Sm1Fe1As0.55P0.45H0.08O0.92,4.2
La1Fe1As0.6P0.4F0.05O0.95,4.2
Ba0.788K0.212Fe2As2,4.2
La0.97Y0.03Fe0.995Mn0.005As1F0.11O0.89,4.2
Ba1Fe1.88Ni0.12As2,4.2
Ba1Fe1.78Co0.22As2,4.2
Ba0.45K0.55Bi1O2.83,4.2
La1.8Sr0.2Cu1O4,4.2
Y1Ba2Cu2.94Zn0.06O6.65,4.2
Y1Ba2Cu2.94Zn0.06O6.59,4.2
Y1Ba1.72La0.28Cu4O8,4.2
Al0.9Ge0.1Nb3,4.2
Pr1.85Ce0.15Cu0.995Zn0.005O4.065,4.2
Ba1Fe1.914Pd0.086As2,4.2
La0.92Sr0.08Fe1As1O1,4.2
Ba1Fe1.48Ru0.52As2,4.2
Ba1Fe1.908Ni0.092As2,4.2
Ba1Fe1.8Co0.2As2,4.2
Ca7.16Ce2.84Pt3Fe10As18,4.2
Ca7.65Nd2.35Pt3Fe10As18,4.2
Ba1Fe1.91Ni0.09As2,4.2
Pr1.85Ce0.15Cu1O4.161,4.2
La1.87Sr0.13Cu0.99Zn0.01O4,4.2
La1.89Ba0.11Cu1O4,4.2
Sm1.35Gd0.5Ce0.15Cu1O3.97,4.2
Al1Nb3,4.2
Nb3Al0.983Ga0.017,4.2
Sm1Fe0.94Ni0.06As1F0.12O0.88,4.2
Na1Fe0.98Co0.02As1,4.2
Ba2Ti2Fe2As4O1,4.2
C60K3,4.2
Ba0.65K0.35Bi1O2.99,4.2
Y0.5Pr0.5Ba2Cu3O6.65,4.2
Ba0.52K0.48Bi1O3,4.2
Al0.24Nb0.76,4.2
Nb0.73Al0.255Si0.015,4.2
Nb3Al0.67Ga0.33,4.2
Ca10Ir4Fe10As18,4.2
Y1Ba2Cu3O6.33,4.2
La1.85Sr0.15Cu0.988Co0.012O4,4.2
La1.84Sr0.16Cu0.98Zn0.02O4,4.2
Ba0.5K0.5Bi1O3,4.2
Sm1.85Ce0.15Cu1O4,4.2
Ga0.25Si0.75V3,4.19
Ga1Si1V3,4.19
Al1Nb3,4.19
Nb3Al0.985Si0.015,4.19
Nb0.75Al0.2Ge0.05,4.18
Al0.25Nb0.75,4.18
Nb3Si1,4.18
Ba1Fe1.898Co0.102As2,4.18
Ca9.58Y0.42Pt3Fe10As18,4.18
Ba1Fe1.88Ni0.12As2,4.18
La0.95Y0.05Fe0.995Mn0.005As1F0.11O0.89,4.18
Ba0.2Na0.8Fe2As2,4.18
Na1Fe1Ni0.015As1,4.18
Nb0.580Ga0.154Al0.266,4.173
Nb3Al0.8Ga0.2,4.17
Al1Nb3,4.17
Nd2Cu1F0.4O3.6,4.17
Nd2Cu1F0.3O3.7,4.17
Gd0.2Nd1.65Ce0.15Cu1O4,4.16
La1.85Sr0.15Cu0.98Ni0.02O4,4.16
Gd0.02Pr1.83Ce0.15Cu1O4,4.16
La1.78Sr0.22Cu0.998Zn0.003O4,4.16
Pu1Co1Ga5,4.16
Nb0.8Sn0.2,4.16
Nb3Al0.975Si0.025,4.156
Nb3Al0.956Si0.044,4.154
Nb0.75Al0.2Ge0.05,4.15
Pu1Co1Ga5,4.15
Nb3Al0.9Ga0.1,4.15
Nb3Al0.5Ga0.5,4.15
Nb3Ga0.5Al0.5,4.15
Sm1Fe0.8Ru0.2As1F0.15O0.85,4.15
Ca1Fe1.898Co0.102As2,4.15
Ba1Fe1.906Co0.094As2,4.15
La0.81Sm0.06Sr0.13Fe1As1O1,4.14
Ba1Fe1.85Zn0.04Co0.11As2,4.14
Ba1Fe1.908Ni0.082As2,4.14
Al1Nb3,4.14
Pr1.85Ce0.15Cu0.99Zn0.01O4.065,4.14
Nd1.85Ce0.15Cu1O4,4.13
Nd0.95La0.9Ce0.15Cu1O4,4.13
Ba0.6K0.4Bi0.969Pr0.031O3,4.12
Nb3Sn0.9Al0.1,4.12
Al0.245Nb0.725,4.12
Nb3Al0.98Se0.02,4.12
Nb3Al0.964Si0.036,4.12
Nb3Al0.945Si0.055,4.12
Nb3Al0.935Si0.065,4.12
Nb3Al0.9Ge0.1,4.12
Al3Nb3,4.12
Ca1.88Na0.12Cu1Cl2O2,4.12
Ba1Fe1.908Ni0.092As2,4.12
Ca1Fe0.85Rh0.15As1F1,4.12
Ba0.1Na0.9Fe2As2,4.115
Li0.8Fe1.2Se0.34S0.66H1O1,4.11
La1.7Sr0.3Cu1O4,4.11
Yb0.45Pr0.55Ba2Cu3O6.92,4.11
La1.78Sr0.22Cu0.99Zn0.01O4,4.11
Al0.23Nb0.75Zr0.013,4.11
Nb3Sn1,4.11
Nb0.71Sn0.29,4.11
Nb0.516Ga0.069Al0.415,4.1
Nb3Al0.9In0.1,4.1
Nb3Sn0.9Ga0.1,4.1
Nb3Ga0.05Sn0.95,4.1
Nb3In0.15Sn0.85,4.1
Nb3Sn0.91Ga0.09,4.1
Nb2.85Ta0.15Sn1,4.1
Li1Fe1As1,4.1
Ba1Fe1.906Co0.094As2,4.1
Sm1Fe0.89Ir0.11As1O1,4.1
Ba0.5K0.5Fe1.8Zn0.2As2,4.1
La1Fe0.7Ru0.3As1F0.11O0.89,4.1
Nb3Bi0.15Sn0.85,4.1
Pr1.85Ce0.15Cu0.985Zn0.015O4.065,4.1
Ba1Fe1.91Ni0.09As2,4.1
In0.15Nb3Sn0.85,4.1
Nb0.498Ga0.044Al0.457,4.1
Nb3Tl0.1Sn0.9,4.1
Pu1Co1Ga5,4.1
Nb3Pb0.15Sn0.85,4.1
Bi0.15Nb3Sn0.85,4.1
La1.822Ba0.178Cu0.99Ni0.01O4,4.1
La1.91Ce0.09Cu1O4,4.1
Ga0.5Si0.5V3,4.1
Nb0.72Sn0.28,4.1
Nb3Sn0.85Tl0.15,4.1
Al1Nb3,4.1
Ga0.250Nb0.750,4.1
Li1Hf0.2Zr0.8N1Cl1,4.1
Nb3Al0.05Sn0.95,4.1
Ce1Fe1As0.7P0.3F0.05O0.95,4.1
Sm1Fe0.9Zn0.1As1F0.2O0.8,4.1
Ba1Fe1.915Ni0.085As2,4.1
Ca9.4La0.6Pt3Fe10As18,4.1
Nb3As0.05Sn0.95,4.1
Nb0.8Sn0.2,4.1
Ga0.15Nb3Sn0.7Tl0.15,4.1
Bi0.15Nb3Sn0.7Tl0.15,4.1
Ga0.15Nb3Pb0.15Sn0.7,4.1
Nd1.85Ce0.15Cu0.996Zn0.004O4,4.1