formula,Tc
Gd0.8Pr0.2Ba2Cu3O6.95,53.100
Bi2Sr2Ca1Cu2I0.69O8.242,53.100
Y1Ba2Cu2.8Co0.2O6.83,53.000
Y1Ba2Cu2.8Co0.2O7.04,53.000
Tl2Ba2Cu1O5.963,53.000
Y1Ba2Cu2.745Fe0.255O7.08,53.000
La1.8Sr0.2Ca1Cu2O6,53.000
Y1Ba2Cu2.88Zn0.12O6.92,53.000
Y1Sr2Cu2.85Re0.15O7,53.000
Y1Sr2Cu2.65Ti0.35O7.1,53.000
Y0.7Ca0.3Ba2Cu2.55Co0.45O6.84,53.000
Y1Ba2Cu3.96Ni0.04O8,53.000
Bi2Sr2Ca1Cu2I1O8.242,53.000
Y1Ba2Cu3O6.5,53.000
Hg0.7Cr0.3Sr2Cu1O4.6,53.000
Ba1.6Sr0.4Yb0.6Ca0.4Cu3O6.25,53.000
Nd1Ba2Cu2.95Ga0.05O6.59,53.000
Y0.7Pr0.3Ba2Cu3O7,53.000
Y0.6Pr0.4Ba1Sr1Cu3O6.89,53.000
Hg1Ba2Cu1O4.08,53.000
Y1Ba2Cu2.84Fe0.16O6.959,53.000
Hg1Ba2Cu0.97Zn0.03O4.043,53.000
Tl0.5Pb0.5Sr2Ca1Cu2.95Co0.05O7,53.000
Nd1Fe1As1O0.6,53.000
Sm1Fe1As1O0.85,53.000
Nd1Fe1As1F0.175O0.825,53.000
Sm0.65Th0.35Fe1As1O1,53.000
Sm1Fe1As1F0.1O0.9,53.000
Nd1Fe1As1F0.1O0.9,53.000
Y0.85Pr0.15Ba2Cu3O6.65,52.900
Nd1Ba2Cu3O6.75,52.800
Y1Ba2Cu3O6.52,52.800
Ca0.4Ba1.15La1.45Cu3O7.23,52.800
Tl1Sr2Ca0.8Y0.2Cu2O7,52.750
Y1Ba2Cu2.95Fe0.05O6.73,52.700
Nd1.25Ba1.75Cu3O6.99,52.700
Y0.8Ca0.2Ba2Cu3O6.4,52.600
Y1Ba2Cu3.9Ni0.1O8,52.600
Y1La0.3Ba1.7Cu4O8,52.600
Y1Ba2Cu3O6.67,52.500
Y1Ba2Cu3O6.45,52.500
Cd1Tl0.7Ba1Cu1O4.5,52.500
Gd0.8Mo0.2Ba2Cu3O6.807,52.500
Tl1Sr2Ca0.75Th0.25Cu2O7,52.500
Y0.5Pr0.5Ba2Cu4O8,52.500
Fe0.5Ba1Sr1Y1Cu2.5O7.424,52.500
Sm1Fe1As1F0.2O0.8,52.500
Ca0.85Ce0.15Ba1La1Cu3O7.07,52.400
Sm1Fe1As1F0.2O0.8,52.400
Y1Ba2Cu2.5Ni0.5O7,52.300
Y1Ba2Cu3.96Zn0.04O8,52.200
Y0.9Pr0.1Ba2Cu3O6.75,52.200
Tb1Fe1As1O0.7,52.200
Sm1Fe1As1O0.7,52.100
La2.2Ba3.8Cu6O13.86,52.000
Y1Ba1.6La0.4Cu3O7.05,52.000
Tl1Ba1.2La0.8Cu1O5,52.000
Y1Ba1.6La0.4Cu3O7.06,52.000
Tl1Sr2Ca1Cu2O6.61,52.000
Sr1.5Ba0.5Y1Cu2.8Ti0.2O7.08,52.000
Lu0.8Ca0.2Ba2Cu3O6.81,52.000
Eu1.2Pr0.8Ba4Cu7O14.788,52.000
Tl0.5Bi0.5Sr4Cu2C1O10,52.000
La0.8Pr0.2Ba1Ca1Cu3O7,52.000
Eu1Ba2Cu2.9Ga0.1O6.74,52.000
Y0.6Pr0.4Ba1.2Sr0.8Cu3O6.89,52.000
Lu0.65Pr0.35Ba1.7Sr0.3Cu3O6.93,52.000
Y1Ba2Cu2.88Zn0.12O7,52.000
La1.3Ba1.5Ca0.2Cu3O6.94,52.000
Er1Ba2Cu2.88Zn0.12O6.92,52.000
C60,52.000
Nd1Fe1As1F0.18O0.82,52.000
Sm1Fe1As1O0.85,52.000
Tb0.8Th0.2Fe1As1O1,52.000
Sm1Fe1As1F0.2O0.8,52.000
Nd1Fe1As1F0.12O0.88,52.000
Fe1Sr2Er1Cu2O7.5,52.000
Nd1Fe1As1O0.85,51.900
Pb2Sr2Ho0.5Ca0.5Cu2.94Al0.06O8,51.800
Sm1Fe1As1F0.2O0.8,51.800
Sm1Fe1As1H0.34O0.64,51.800
Y0.8Pr0.2Ba2Cu3O6.65,51.700
La0.5Pr0.5Ba2Cu3O7,51.700
Tl1Sr1.75Th0.25Ca1Cu2O7,51.600
H1Pd1,51.600
La1.77Sr0.23Ca1Cu2O6.03,51.500
Y1Ba2Cu2.9Zn0.1O7,51.500
Y1Ba1Sr1Cu3O6.8,51.500
Sm1Fe1As1F0.15O0.85,51.500
Y1Ba2Cu3O6.47,51.400
Y1Ba1.8La0.2Cu3O6.85,51.400
Sm0.9Th0.1Fe1As1O1,51.400
Sm1Fe1As1H0.3O0.6,51.400
Y1Ba2Cu3O6.48,51.200
Dy1Fe1As1O0.7,51.200
Sm1Fe1As1F0.15O0.85,51.100
Y1Ba2Cu2.85Fe0.15O7,51.000
Y1Ba2Cu2.88Al0.12O7,51.000
Y1Ba2Cu2.72Ni0.28O7,51.000
Y1Sr2Cu2.75W0.25O7.1,51.000
Y1Sr2Cu2.7Fe0.3O7.1,51.000
La1.8Sr0.2Ca1Cu2O6.03,51.000
Y1Sr0.8Ba1.2Cu2.5B0.5O7,51.000
Y0.76Ca0.34Ba2Cu2.55Co0.45O6.95,51.000
Y0.76Ca0.24Ba2Cu2.55Co0.45O6.93,51.000
Y1Ba2Cu3O6.63,51.000
Nd1.2Ba1.6Ca0.2Cu3O6.929,51.000
Ba1.6Sr0.4Yb0.65Ca0.35Cu3O6.28,51.000
La2.5Y0.5Ca1Ba3Cu6.3Fe0.7O16.627,51.000
La1.4Ba1.5Ca0.1Cu3O6.982,51.000
Eu0.8Sr0.2Ba1.6Pr0.1Cu3O6.78,51.000
Ga1Sr2Tm0.6Ca0.4Cu2O7,51.000
Nd1Fe1As1O0.85,51.000
Dy1Fe1As1O0.85,51.000
Tb1Fe1As1F0.1O0.9,51.000
Nd1Fe1As1F0.1O0.9,51.000
Y1Ba2Cu2.7Fe0.3O7,50.800
Bi1.8Pb0.2Sr2Ca1Cu1.96Co0.04O8,50.700
Y1Ba2Cu2.76Co0.24O6.999,50.700
Ru1Sr2Gd1Cu2O8,50.700
Y1Ba2Cu3.92Co0.08O8,50.600
Bi2Sr2Ca2Cu2I0.86O8.21,50.600
Y1Ba1.9La0.1Cu3O6.6,50.600
Yb0.6Pr0.4Ba2Cu3O6.91,50.500
Sm1Fe1As1O0.85,50.500
Y1Ba2Cu3O6.56,50.400
Y1Ba2Cu3O6.62,50.400
Y1Ba2Cu3.92Fe0.08O8,50.400
Y1Ba2Cu2.88Zn0.12O7,50.400
Tm0.6Pr0.4Ba2Cu3O6.95,50.300
Y1Ba2Cu3O6.53,50.300
La1.25Ca0.2Ba1.55Cu3O7.082,50.200
Y1Ba2Cu3O6.5,50.100
Y1Ba2Cu3.96Zn0.06O8,50.100
La1.1Ba1.4Sr0.5Cu3O6.954,50.100
Sm1.27Ba1.73Cu3O7.05,50.100
Nd1Fe1As1F0.11O0.89,50.100
Sm1Fe1As1F0.12O0.88,50.100
Nd1Fe1As1F0.1O0.9,50.100
Y1Ba2Cu2.9Zn0.1O6.85,50.080
Nd0.8Ba0.2Fe1As1F0.4O0.6,50.030
Y1Ba2Cu3O6.5,50.000
Y1Ba2Cu3O6.66,50.000
Tl2Ba2Cu1O5.947,50.000
Tl2Ba2Cu1O6,50.000
Y2Ba4Cu7O14.38,50.000
La1.7Sr0.3Ca1Cu2O6,50.000
Y0.8Ca0.2Ba2Cu3O6.1,50.000
Pb0.5Ca1Sr2Y0.5Cu2O6.95,50.000
Y1Ba2Cu3O7,50.000
Sm1.27Ba1.73Cu3O7.05,50.000
Y0.9Ca0.1Ba2Cu2.9Zn0.1O6.81,50.000
Y0.6Ca0.4Sr1.7Ba0.3Cu2Ga1O7,50.000
La1.3Ba1.4Sr0.3Cu3O6.91,50.000
Tl0.8V0.2Sr4Cu2C1O10,50.000
Y1Ba2Cu3.8Co0.2O8,50.000
Y1Ba2Cu3.88Ni0.12O8,50.000
Nd1.2Ba1.8Cu3O6.954,50.000
Gd1Ba1.5Sr0.5Cu3O6.73,50.000
Hg1Ba2Cu1O6.932,50.000
Sr1.5Ba0.5Y1Cu2.8Ga0.2O7.1,50.000
Tm1.2Pr0.8Ba4Cu7O14.652,50.000
Ba1.6Sr0.4Yb0.65Ca0.35Cu3O6.04,50.000
Tl0.7Bi0.3Sr4Cu2C1O10,50.000
Y0.5Pr0.5Ba2Cu4O8,50.000
Cu3P0.5Sr2Ca1.7Y0.3O9.4,50.000
Nd0.8Pr0.2Ba2Cu3O6.81,50.000
Dy1Ba2Cu2.8Ga0.2O6.78,50.000
Hg1Ba2Cu1O4.09,50.000
Y1Ba2Cu3O6.54,50.000
Dy1Ba2Cu3O7,50.000
Y1Ba2Cu2.97Zn0.03O6.7,50.000
Hg1.4Tl0.6Ba2Y0.8Ca0.2Cu2O7.83,50.000
La1.5Ba1Ca0.5Cu3O6.981,50.000
Er1Ba2Cu2.82Zn0.18O6.91,50.000
Er1Ba2Cu2.85Zn0.12Fe0.03O6.94,50.000
Tm1Ba2Cu3O6.49,50.000
Eu0.6Sr0.4Ba1.6Pr0.1Cu3O7.06,50.000
Hg0.75Mo0.25Sr2Cu1O4,50.000
La0.85Ca0.05Pr0.1Ba1.5Sr0.5Cu3O6.865,50.000
La1.5Nd0.5Ca1Ba2Cu4.5Mo0.5O11.119,50.000
Fe1Sr2Y1Cu2O7.68,50.000
Tl0.5Pb0.5Sr2Ca1Cu2.95Ni0.05O7,50.000
Sr0.8Ba1.2Cu1O3.35,50.000
C60,50.000
Yb1Fe4Al8,50.000
Bi0.2Pb0.3La1.3Sr1.2Cu2O5.78,50.000
Nd1Fe1As1F0.18O0.82,50.000
Tb1Fe1As1F0.1O0.9,50.000
Sm1Fe1As1F0.2O0.8,50.000
Pr1Fe1As1F0.225O0.775,50.000
Ca0.4Pr0.6Fe1As1F1,50.000
Ca5P2O10,50.000
Sm1Fe1As1H0.22O0.78,50.000
Tl0.7Er0.3Sr2Ca0.8Cr0.2Cu2O7,50.000
Tl0.7La0.3Sr2Ca0.8Cr0.2Cu2O7,50.000
Nb1S2,5.990
Fe1Se0.8S0.2,5.990
La1.865Ba0.135Cu1O4,5.980
Hf0.16Ta0.84,5.980
La1Sn3,5.980
Er0.11Ho0.89Rh4B4,5.980
B12Zr1,5.970
Nb0.717Ga0.221Mn0.062,5.970
Zr0.993Lu0.007B12,5.970
Mg1C1Ni2.985Fe0.015,5.960
Ag0.7Mo4Se5,5.960
Ag0.7Mo3Se4,5.960
Er0.11Ho0.89Rh4B4,5.960
La1Fe1As0.1P0.9O1,5.960
Sc4Dy1Ir4Si10,5.950
In0.75Sn0.25,5.950
Er0.16Ho0.84Rh4B4,5.950
Li1,5.950
Rh0.06Zr0.94,5.950
Rh0.07Zr0.93,5.950
Ca1Al1Si1,5.950
B12Zr1,5.940
Er0.005La0.995,5.940
La0.987Gd0.013Sn3,5.940
La1.87Ba0.13Cu1O4,5.940
Fe1Se0.7S0.3,5.940
Zr2Co0.9Ni0.1,5.940
Hf1Re6,5.940
Na0.1Pb0.9,5.930
Pb1Te1Yb1S1,5.930
Nb0.5Ta0.5,5.930
Ba0.7Rb0.3Ti2Sb2O1,5.930
La1Ru2.88Cu0.12Si2,5.930
Ho0.6Dy0.4Ni2B2C1,5.920
Zr2Co0.85Ni0.15,5.920
Ho0.65Dy0.35Ni2B2C1,5.910
Ho0.5Dy0.5Ni2B2C1,5.910
Ta2Pd0.97S5,5.910
Hf0.6Lu0.4P1.55S0.45,5.910
Gd1Nd0.85Ce0.15Cu1O4,5.900
Hg1Sm1Pb2,5.900
La1,5.900
Al3Os1,5.900
B5Nb1.8Zr0.2,5.900
Ga1Sb1,5.900
V0.26Zr0.74,5.900
Ho0.65Dy0.35Ni2B2C1,5.900
Ho0.5Dy0.5Ni2B2C1,5.900
Tm1Ni1.94Co0.12B2C1,5.900
Tb0.225Er0.775Ni2B2C1,5.900
Ge1Nb3,5.900
Cu1Mo6Se8,5.900
Cs0.005W1O3,5.900
Lu4.9Sc0.1Ir4Si10,5.900
Er0.775Tb0.225Ni2B2C1,5.900
Mo0.45Re0.55,5.900
Re2Zr1,5.900
Rh0.06Zr0.94,5.900
Rh0.065Zr0.935,5.900
Cu0.7Mo3Se4,5.900
La1Os2,5.900
Dy1Ga6,5.900
Ca3Co4Ge13,5.900
Nb5Si2.8B0.2,5.900
Pr1Fe0.85Co0.15As1O1,5.900
B6Y1,5.900
Ba7.9Eu0.1Al5Si41,5.900
Bi3Sr1,5.900
Zr0.675Lu0.325P1S1,5.900
Ce0.97La0.03Ru2,5.890
Mo0.33Re0.67,5.890
Mo6Se6Te2,5.880
Zr2Co0.85Cu0.15,5.880
Bi1In2,5.870
Th0.9La0.2Ru2,5.870
Hf0.5Lu0.5P1.45S0.55,5.870
B1Mo2,5.860
Hf0.14Re0.86,5.860
Ho0.7Dy0.3Ni2B2C1,5.860
Ho0.4Dy0.6Ni2B2C1,5.860
V0.823Ge0.154Sb0.023,5.860
Ba0.85K0.15Ti2Sb2O1,5.860
Hg1Pb2.1,5.850
B1Mo2,5.850
Cu1La1,5.850
Ga1N1,5.850
Ho0.4Dy0.6Ni2B2C1,5.850
Mg0.4Al0.6B2,5.850
Mo0.15Nb0.85,5.850
B12Zr1,5.850
Lu2Fe3Si5,5.850
Ba8Si44Al2,5.850
Nb1S2,5.840
Tl1Mo3Te3,5.840
Ga1La3,5.840
Ce1Fe1As0.47P0.53F0.05O0.95,5.840
Mo6Se7.7S0.3,5.830
Ge1V3H0.033,5.830
Zr2Co0.8Ni0.2,5.830
Ce0.8Pr0.2Ru2,5.820
Ir1Mo3Nb1Pt1,5.820
B12Zr1,5.820
Sn1Ta3,5.820
Zr0.993Lu0.007B12,5.810
Zr0.75Lu0.25P1S1,5.810
Nd0.65La1.2Ce0.15Cu1O4,5.800
La1.83Sr0.17Cu0.96Ni0.04O4,5.800
Hg1Pb2,5.800
Lu5Ir4Si9.8Ge0.2,5.800
B2.1Nb1,5.800
Al2Ca1Si1,5.800
Ba1Bi3,5.800
Be5Ga1,5.800
Co0.002Mo0.815Re0.185,5.800
Mo3Se4,5.800
Pb0.6Tl0.4,5.800
Rh17S15,5.800
P1,5.800
Ru0.465V0.535,5.800
Hf0.14Re0.86,5.800
Rh0.005Zr1,5.800
Sb1Ti3,5.800
Ho1Ni2B2C1,5.800
Ho0.7Dy0.3Ni2B2C1,5.800
Y1Pt1.5Au0.6B2.4C1.2,5.800
Mo8P5,5.800
Be1,5.800
La1Mo6S8,5.800
Lu5Ir3.12Rh0.88Si10,5.800
Y2I0.4Br1.6C2,5.800
Y0.8La0.2B6,5.800
Ga1Ta4Se8,5.800
Mo0.33Re0.67,5.800
Ga1La3,5.800
Al1La3,5.800
Ge1H0.005V3,5.800
Mo1.94Hf0.06B1C1,5.800
La1Fe1P1F0.06O0.94,5.800
Mg9.3Ir19B16.7,5.800
Bi1Cu0.9S1O1,5.800
W5Si1B2,5.800
Mo5Si1B2,5.800
Ba1Fe1.92Co0.08As2,5.800
Sm1Fe0.825Co0.175As1O1,5.800
La1Fe1P1O1,5.800
Y3Os8B6,5.800
K2Cr3As3,5.800
Re24Ti5,5.800
Ta1Rh2B2,5.800
Mo1C1,5.800
S1Sn1,5.800
Y7Ru4In1Ge12,5.800
Ca1Ir2,5.800
Ag1Sn1Se1.8S0.2,5.790
Zr2Co0.95Ga0.05,5.790
Sr1Pt2.1Pd0.9P1,5.780
Zr0.5Lu0.5P1S1,5.780
Lu4.9Sc0.1Ir4Si10,5.770
Lu5Ir3.1Rh0.9Si10,5.770
Dy0.6Tm0.4Ni2B2C1,5.770
Pr0.8Eu0.2Pt4Ge12,5.770
Nb0.8V0.2,5.760
Zr1P1.5Se0.5,5.760
Rh0.06Zr0.94,5.750
Tc0.3W0.7,5.750
Ti0.1V0.9,5.750
Ca3Co4Sn13,5.750
Pr0.95Ce0.05Pt4Ge12,5.750
Ba8Si43Al3,5.750
Ca1.5Sr1.5Ir4Sn13,5.750
K0.9La0.1Bi1O3,5.740
Ti1Re1O1,5.740
Mo0.96Zr0.04B2,5.740
La0.95Ce0.05Pt4Ge12,5.730
La2.939Ce0.061In1,5.720
Lu5Ir3.44Rh0.56Si10,5.720
Nb0.405Ta0.595,5.720
Ir2Th1,5.720
Zr2Co0.9Ga0.1,5.720
Cu0.318Sn0.682,5.710
Re1Ti1O5,5.710
Er0.11Ho0.89Rh4B4,5.710
Hf0.61Ta0.39,5.710
Ba0.6Rb0.4Ti2Sb2O1,5.710
Eu1.804Gd0.046Ce0.15Cu1O4,5.700
Ba0.2Mo1S2,5.700
Hg1Pb1.8,5.700
Hg1Sm0.5Pb2,5.700
B0.69Mg0.31,5.700
Al0.2B5Mo1.8,5.700
Be8Ga1,5.700
Be22Ga1,5.700
Bi1Ru1,5.700
Bi3Sr1,5.700
Ir2Sr1,5.700
Ru0.1Zr0.9,5.700
Ru0.5W0.5,5.700
Ta0.96Zr0.04,5.700
B6La1,5.700
Nb0.88V0.12,5.700
Y1Ni1.7Mn0.3B2C1,5.700
Mo0.38Re0.62,5.700
Lu5Ir3.4Rh0.6Si10,5.700
Mo6Se5Cl3,5.700
Os0.06Zr0.94,5.700
Bi1,5.700
Mg12Ir19B16,5.700
Nb1S2,5.700
Zr2Ru3Si4,5.700
Li1Fe0.986V0.014As1,5.700
Ba8Si42Al4,5.700
Ba1Bi3,5.690
Mo5.6Ru0.4Se8,5.690
Lu5Ir3.12Rh0.88Si10,5.680
Ca1Al1Si1,5.680
Hf0.5Lu0.5P1.55S0.45,5.680
Ru0.46V0.54,5.670
Sc0.01V0.99,5.670
La0.9Ca0.1Fe1P1O1,5.670
Zr0.985Lu0.015B12,5.670
La0.2Th0.8Pt4Ge12,5.670
Lu5Ir2.8Rh1.2Si10,5.660
Th1Ir1.8Os0.2,5.660
Os0.07Zr0.93,5.660
Mo0.62Os0.38,5.650
In0.75Pb0.25,5.650
Zr0.984Lu0.016B12,5.650
Ba0.67Pt3B2,5.650
Fe0.99Cu0.01Se0.88,5.640
Er0.82Tb0.18Ni2B2C1,5.630
La1Fe1P1O1,5.630
Zr1.5Y0.5P1.25Se0.75,5.630
Na1Pb3,5.620
La0.9Th0.1,5.620
Nb0.29Re0.71,5.620
Li0.1Cs1Ca2Nb3O10,5.620
Dy0.95Tb0.05Ni2B2C1,5.610
Hf1Re2,5.610
La0.9Ce0.1Pt4Ge12,5.610
Nd1.85Ce0.15Cu0.993Ni0.007O4,5.600
Nd0.7Pr0.3Ba2Cu3O7,5.600
Mg1C1Ni2.934Ru0.066,5.600
Sr0.8Mo1S2,5.600
Be13Ga1,5.600
Bi1In2,5.600
C0.78N0.22Th1,5.600
Cr0.1Ti0.3V0.6,5.600
Hf1Tc2,5.600
La0.99Lu0.01,5.600
Mg2Pb1,5.600
Mo0.72Pt0.28,5.600
Mo1S2Sr0.2,5.600
Nb0.29Re0.71,5.600
Nb0.84S0.16,5.600
Nb0.92Sn0.08,5.600
Os0.06Zr0.94,5.600
P1,5.600
C1Hf0.4Nb0.6,5.600
Gd1.2Mo6Se8,5.600
Ba0.67Pt3B2,5.600
Ca1Al0.8Ga0.2Si1,5.600
V3Ga0.5Sn0.5,5.600
Hf0.1Ta0.9,5.600
Mo0.35Re0.65,5.600
Mg2Nb1,5.600
Al1Gd0.001La3,5.600
Th3Os4Ge13,5.600
Lu2Fe3Si5,5.600
Mo1.86Ta0.14B1C1,5.600
Ca1Al1Si1,5.600
Ga0.05Nb1Se2,5.600
Zr1Ru1P0.6B0.4,5.600
Ti1N1,5.600
Sm1Fe0.9Ni0.1As1F0.12O0.88,5.600
Ba8Si40Al6,5.600
Ce0.93Th0.07Ru2,5.600
Sr0.06Mo1S2,5.600
Sr0.08Mo1S2,5.600
Bi3Sr1,5.600
Mo3P1,5.600
Fe1Se0.79S0.21,5.600
V2.79Mo0.21Si1,5.590
La0.99Lu0.01,5.590
Pr0.96Ce0.04Pt4Ge12,5.590
La0.06Th0.94Pb3,5.580
La2.94Ce0.06In1,5.580
Ti0.03V0.97,5.580
Nd0.2Sm0.8Bi1S2F0.3O0.7,5.580
Nd0.2Sm0.8F0.3Bi1S2O0.7,5.580
Ag0.92Sn1.08Se2,5.570
Ca1Al0.9Si1.1,5.570
Ti0.576V0.384Ru0.04,5.570
Ta0.2Zr0.8,5.560
Sr1Fe1.66Co0.34As2,5.560
Zr2Co0.85Ga0.15,5.560
Nd1Bi0.94Pb0.06S2F0.3O0.7,5.560
La1.935Ca0.065Cu1O4,5.550
Bi0.343In0.657,5.550
Pb3Th1,5.550
La3Ru1,5.550
Lu2Ir3Si5,5.550
Bi3Sr1,5.550
Nb0.4Ta0.6,5.540
Pb0.52Tl0.48,5.540
Ba0.84K0.16Fe2As2,5.540
Nb0.713Ga0.195Mn0.093,5.530
Hf1Os1P1,5.530
B2Nb1,5.530
Ba0.75Na0.25Ti2Sb2O1,5.530
Lu5Ir3.8Co0.2Si10,5.520
Tm1Ni1.88Fe0.12B2C1,5.520
Pr0.93Ce0.07Pt4Ge12,5.520
Nd0.6Sm0.4F0.3Bi1S2O0.5,5.520
Li0.28Cs1Ca2Nb3O10,5.510
Eu0.003La0.997,5.510
Nd0.4Sm0.6Bi1S2F0.5O0.5,5.510
Li0.1K1Ca2Nb3O10,5.510
Li0.45Nb1O2,5.500
Nd1.85Ce0.15Cu0.993Ni0.007O4,5.500
La1.8Sr0.2Cu0.968Zn0.032O4,5.500
Sr2Ca12Cu24O41,5.500
Ru0.95Co0.05Sr2Gd1Cu1O8,5.500
Sb1Ti3,5.500
Al1Ge1,5.500
Al13Os4,5.500
B5Mo1.7V0.3,5.500
C3Ho0.4Th1.6,5.500
C0.2N0.8Nb0.8V0.2,5.500
Ge0.72Nb3.28,5.500
Ir0.287O0.14Ti0.573,5.500
K0.4Mo1S2,5.500
Ir0.1Zr0.9,5.500
La0.99Y0.01,5.500
N0.48Nb1,5.500
Nb1S2,5.500
Nb0.25Sn0.25V0.5,5.500
V2Nb1Sn1,5.500
C1Hf0.3Mo0.7,5.500
In3Sn1,5.500
Ir0.287O0.14Ti0.578,5.500
Nb1Sn1V2,5.500
V0.509Ti0.434Zr0.057,5.500
Cu3Mo6S8,5.500
B2Zr1,5.500
Y2I0.25Br1.75C2,5.500
H0.3Li1Nb1O2,5.500
H0.5Li1Nb1O2,5.500
Co1Zr2,5.500
P1,5.500
V0.65Ge0.15Al0.2,5.500
V0.65Ge0.25Al0.1,5.500
La0.99Yb0.01,5.500
Th1.6Ho0.4C3,5.500
Er5Os4Si15,5.500
Sr1Fe1.9Ni0.1As2,5.500
La1Fe1P1O1,5.500
Ge1,5.500
Pd0.5Bi2Te3,5.500
Ba0.9K0.1Fe2As2,5.500
Rb0.19W1O3,5.500
La1Ni1Bi1O1,5.500
Sm1Fe1As0.47P0.53H0.24O0.76,5.500
Th0.93Zr0.07B12,5.500
Mo3P1,5.500
Ta1Os1Si1,5.500
Nb1Te2,5.500
N1Ti1,5.490
La0.962Tm0.038Sn3,5.490
Cr0.6Re0.4,5.490
Cr0.369Ga0.197V0.433,5.480
Th1Rh0.85Si1.15,5.480
Sb1Ti3,5.470
Nb0.1Hf0.9N1,5.470
Li2Pd2.4Pt0.6B1,5.470
Co1Zr2,5.470
Zr2Co1,5.470
Zr0.96Lu0.04B12,5.470
Mg1C1Ni2.98Fe0.02,5.460
V0.823Ge0.154Sn0.024,5.460
H0.51Mo0.1Nb0.765Pd0.135,5.460
Mo6Se7.5S0.5,5.450
Zr0.255V0.539Nb0.206,5.450
Lu5Ir2Rh2Si10,5.450
Sr1Pt2As2,5.450
Bi2Te2Se1,5.450
Nd1Bi1S2F0.9O0.62,5.440
La0.2Sm0.8Bi1S2F0.5O0.5,5.440
Mo5.5Ru0.5Se8,5.430
La1Bi1S2F0.5O0.5,5.430
Li0.05Cs1Sr2Nb3O10,5.430
Li0.1Cs1Sr2Nb3O10,5.430
Li0.34K1Ca2Nb3O10,5.420
Ti0.01V0.99,5.420
Zr0.170V0.602Nb0.228,5.420
La0.2Sm0.8Bi1S2F0.5O0.5,5.420
La1Fe1P1O1,5.420
La1Ru2.919Ni0.081Si2,5.420
Ba1Fe1.958Rh0.042As2,5.410
Zr2Co0.8Cu0.2,5.410
C60Tb2.75,5.400
La1.89Ba0.11Cu1O4,5.400
La1.78Ba0.22Cu1O4,5.400
Li0.34Cs1Ca2Nb3O10,5.400
La0.8Th0.2Ni1C2,5.400
Ti0.453Nb0.207Si0.206B0.134,5.400
C3Ho0.2Th1.8,5.400
C3Sc1.4Th0.6,5.400
La0.95Y0.05,5.400
Mo6.3Pb1S6Se2,5.400
B1C1Mo2,5.400
Ir1Ti3,5.400
C60Yb2.75,5.400
In0.71V6S8,5.400
Tm1Rh4B4,5.400
Pb1Mo6S6Se2,5.400
Se1,5.400
V0.55Ge0.1Al0.35,5.400
Ce1Ru2,5.400
Nb0.4Ta0.6,5.400
Th1.8Ho0.2C3,5.400
Th0.6Sc1.4C3,5.400
Nd1Rh6B6,5.400
La2Sn5,5.400
Rh17S15,5.400
Sr1Pt4Ge12,5.400
Nb1S2,5.400
C1,5.400
Zr1Ru1P0.8B0.2,5.400
Ca2Al2.39Si4.61,5.400
La1Fe1P1F0.1O0.9,5.400
Ta2Pd0.92S5,5.400
Sr2.5Sn1O1,5.400
Nb0.9Ni0.1B2,5.400
Bi2Pd1,5.400
Li0.34K1Ca2Nb3O10,5.390
Bi1Te1I1,5.390
Hf0.08Ta0.92,5.380
Os0.05Zr0.95,5.380
Nd0.4Sm0.6Bi1S2F0.3O0.7,5.380
S1.005Sc1,5.370
Nd1Bi0.97Pb0.03S2F0.3O0.7,5.370
Nd1Rh4B4,5.360
Rh17S15,5.360
Ge1,5.350
Ce0.85La0.15Ru2,5.350
Ba1Pt4Ge12,5.350
Bi2Pd1,5.350
Nd1Bi0.96Pb0.04S2F0.3O0.7,5.350
Zr0.4Y0.6P1S1,5.350
Zr0.230V0.702Nb0.067,5.340
Zr1P1.1Se0.9,5.340
Zr0.5Y0.5P1S1,5.340
Ba0.9Rb0.1Ti2Sb2O1,5.330
Mo0.5Pt0.05Re0.45,5.320
Nb0.85W0.15,5.320
Ti0.564V0.376Fe0.06,5.320
V1,5.320
Sb0.25Ti0.75,5.320
Nd0.6Sm0.4Bi1S2F0.5O0.5,5.320
Bi3S3O2,5.320
Li0.46Cs1Ca2Nb3O10,5.310
Mo3P1,5.310
Nb0.37Ta0.63,5.310
Er0.01La0.99,5.310
Nd1Rh4B4,5.310
Hf1P1.5S0.5,5.310
Ba4Sr4Si46,5.300
Nb0.378Mo0.167Si0.455,5.300
Ag0.15Bi0.85,5.300
Er0.01La0.99,5.300
Ga0.1Ge0.9,5.300
Ge0.22Nb1,5.300
La0.99Pr0.01,5.300
La3Te4,5.300
Mo0.15Nb0.85,5.300
Nb0.1Ti0.4V0.5,5.300
Tc0.44Th0.56,5.300
Ti0.75V0.25,5.300
Sn1,5.300
B1C1Mo2,5.300
Bi0.15In0.85,5.300
Ga1V1.95,5.300
Nb0.500Zr0.250Mo0.250,5.300
Ba1Si2,5.300
Nd1Rh4B4,5.300
V1,5.300
Al13Os4,5.300
Mo0.75Pt0.15Re0.1,5.300
Sb1Ti3,5.300
La1.14Nb2Se5.14,5.300
Ba1Fe1.838Co0.094Cu0.068As2,5.300
Yb1Bi1S2F0.5O0.5,5.300
Ba0.85Na0.15Fe2As2,5.300
La1Ir1P1,5.300
La2Sb1,5.300
Nd0.8Sm0.2F0.3Bi1S2O0.5,5.300
Ba1Pt4Ge12,5.300
Ba1Pt3.5Au0.5Ge12,5.300
Bi2Pd1,5.300
Bi1Te1I1,5.300
Li0.46Cs1Ca2Nb3O10,5.290
Zr2Co0.8Ga0.2,5.290
Ba2Ti2Fe1.9Cr0.1As4O1,5.290
Ag0.95Sn1.05Se2,5.280
La0.997Tb0.003,5.280
Ta0.17Zr0.83,5.280
Pr0.7Eu0.3Pt4Ge12,5.280
Bi1.5Sb0.5Te2Se1,5.280
Nb1Re3,5.270
Ce0.005La0.995,5.270
B2.03Nb1,5.260
Y1Pd2Sn1,5.260
Lu0.55Er0.45Ru1B2,5.260
Ce0.91La0.09Ru2,5.250
Mo0.202Zr0.798,5.250
La2.706Pr0.294Tl1,5.250
Fe1.13Se0.1Te0.85,5.250
Nd1Bi1S2F0.4O0.6,5.250
Nd1Bi1S2F0.3O0.7,5.250
La1Fe1P1F0.1O0.9,5.250
Pb1Te1,5.240
V1,5.240
Nd1Bi1S2F0.7O0.63,5.240
La1Bi1Se1S1F0.5,5.240
La0.99Pr0.01,5.230
Bi3.9Co0.1S3O4,5.230
Ba0.85Na0.15Ti2Sb2O1,5.220
Li0.3Cs1Sr2Nb3O10,5.220
Be22Tc1,5.210
Ca1Al1.2Si0.8,5.210
Ag0.95Sn1.05Se2,5.210
Nd0.6Sm0.4F0.3Bi1S2O0.7,5.210
Li0.2Cs1Sr2Nb3O10,5.210
La1.85Sr0.15Cu0.985Fe0.015O4,5.200
Na2Rb0.75Cs0.25C60,5.200
Y0.5Pr0.5Ba2Cu3O6.53,5.200
Eu1.841Y0.009Ce0.15Cu1O4,5.200
Ba0.47K0.53Bi0.985Pr0.015O3,5.200
Y3.25Dy1.75Os4Ge10,5.200
Mo2N1,5.200
Ba6Ca2Si46,5.200
Si1,5.200
Be8Nb5Zr2,5.200
C3Ho0.6Th1.4,5.200
Mo1Os2,5.200
Ru0.58W0.42,5.200
Sb0.28Tl0.72,5.200
Sb0.66Tl0.33,5.200
Sn1,5.200
Re0.52W0.48,5.200
C1W2,5.200
Sb2Tl7,5.200
Co1Zr2,5.200
Ge0.02Nb0.98,5.200
Y0.45Dy0.55Ni2B2C1,5.200
V1,5.200
Ho0.011La0.99,5.200
Nb5Zr2Be8,5.200
Rh0.05Zr0.95,5.200
Th1.4Ho0.6C3,5.200
Re0.8V0.2,5.200
Hf1Re2,5.200
Bi0.9Sb0.1,5.200
Lu2Ir3Si4.5Ge0.5,5.200
Lu2Sn1C1,5.200
Sr1Pt2As2,5.200
Mg4Al1Si3,5.200
La0.1Sm0.9Bi1S2F0.5O0.5,5.200
Nd1Bi1S2F0.29O0.71,5.200
Bi3.9Co0.1S3O4,5.200
Ba7.8Eu0.2Al5Si41,5.200
Ag1Sn0.9Bi0.1Se2,5.200
B6Y1,5.200
Ba1Fe1.8Ni0.2As2,5.200
Nb1Se2,5.200
Pb1Te1,5.190
Ba1Pt3.5Au0.5Ge12,5.190
Nd0.6Sm0.4Bi1S2F0.3O0.7,5.190
Rh0.94Se2,5.190
Zr1P1.5Se0.5,5.190
Sr2Ca12Cu24O41,5.180
La0.99Nd0.01,5.180
Ho0.01La0.99,5.180
Zr0.8Mo0.2,5.180
Mg1C1Ni2.975Fe0.025,5.170
V1,5.170
Os0.1Zr0.9,5.170
La0.92Tm0.08Sn3,5.170
Nd1Bi0.98Pb0.02S2F0.3O0.7,5.170
V1,5.160
Ca1Rh2,5.160
Li0.68Nb1O2,5.150
Os0.5V0.5,5.150
Nb1Se2,5.150
V1,5.150
Nb0.3Ta0.7,5.150
Cr0.002V0.998,5.150
La0.8Th0.2,5.150
Th1Ir1.6Os0.4,5.150
La0.3Sm0.7Bi1S2F0.5O0.5,5.140
Zr2Co0.7Ni0.3,5.140
Nb0.575Rh0.425,5.130
Mo0.97Fe0.03Ga4,5.130
Sm1Fe0.95Co0.05As1O1,5.130
Ba0.9K0.1Ti2Sb2O1,5.130
Ru0.5W0.5,5.120
Re0.5W0.5,5.120
Nd1Bi1S2F0.2O0.8,5.120
Nd1Bi1S2F0.3O0.7,5.120
La0.9Ce0.1Ru3Si2,5.120
Pr0.62Eu0.38Pt4Ge12,5.120
Ce0.7Pr0.3Ru2,5.110
Sr0.9K0.1Fe2As2,5.110
Nd0.8Sm0.2Bi1S2F0.5O0.5,5.110
La1.8Sr0.2Cu0.96Ni0.04O4,5.100
Sr2Y1Ru0.96Cu0.04O6,5.100
Bi2Sr2Ca0.5Pr0.5Cu2O8.329,5.100
Sr0.2Mo1S2,5.100
Lu5Ir4Si6Ge4,5.100
Ge0.2La0.8,5.100
Ti0.494Nb0.226Si0.280,5.100
Al0.03Ti0.81V0.16,5.100
Ba1,5.100
N1Nb1,5.100
Re0.83Ti0.17,5.100
Bi1In2,5.100
Hg1Sn6,5.100
V2.52Mo0.48Si1,5.100
Nb2.55V0.45Au1,5.100
Nb3Rh0.7Pt0.3,5.100
Er1Ni1.962Co0.075B2C1,5.100
Ti1Rh1Si1,5.100
Mg0.23Al0.77B2,5.100
Sr1Ga1Si1,5.100
Sr1Al1Si1,5.100
V0.749Sb0.157Al0.094,5.100
B1W1.26Re0.74,5.100
Cr0.56Re0.44,5.100
In0.85Pb0.15,5.100
Sb1Ti3,5.100
Tc0.75Ti0.25,5.100
Sr3Ir4Sn13,5.100
Sr1Pt4Ge12,5.100
Rb0.14W1O3,5.100
Rb0.16W1O3,5.100
Nb1Re1Si1,5.100
Ba1Fe1.856Ni0.144As2,5.100
Zr2Co0.75Ga0.25,5.100
Ba1Fe1.76Co0.24As2,5.100
Ba0.5K0.5Fe1.7Ni0.3As2,5.100
La0.3Sm0.7Bi1S2F0.5O0.5,5.100
Bi3S3O3,5.100
Nd0.8Sm0.2F0.3Bi1S2O0.5,5.100
Bi2S2F0.5O0.5,5.100
La3Co4Sn12.35In0.65,5.100
Bi2F0.6S2O0.4,5.100
Ag1Sn0.8Bi0.2Se2,5.100
Nb0.93Ni0.07B2,5.100
Ta1Ir2B2,5.100
C1Ta1,5.090
B1Mo1Re1,5.090
Ho1Rh3.6Ir0.4B4,5.090
Zr1.6Y0.4P1.25Se0.75,5.090
Y2C2Br1I1,5.080
Cu1.2Rh1.8S4,5.080
Re0.4W0.6,5.080
Cr0.003V0.997,5.070
Lu0.8Dy0.2Ru1B2,5.070
Bi2Pd1,5.070
Bi0.1In0.9,5.050
Ru0.46V0.54,5.050
Bi10.1In0.9,5.050
Y2C2Br2,5.050
Y2Br2C2,5.050
Hg0.06Sn0.94,5.050
Ba1Pt3.75Au0.25Ge12,5.050
Os0.55V0.45,5.040
Y2C2Br2,5.040
Y0.6Tb0.4Ni2B2C1,5.040
Sr1Ga1.1Si0.9,5.040
La2.963Gd0.037In1,5.040
La0.9Sr0.1Fe1As0.8P0.7O1,5.040
Y2C2Br2,5.030
In0.88Sn0.12,5.030
Mo6Se7.3S0.7,5.030
Co0.069Ga0.198V0.733,5.030
Ba1Pt4Ge12,5.030
Nb5Ir0Pt3O1,5.030
Rb0.19W1O3.001,5.020
Y1Pd2Sn1,5.020
Ba1Fe1.2Ru0.8As2,5.020
Ba0.76La0.24Fe2As2,5.020
La1Ru2.865Ni0.135Si2,5.020
Rb0.23W1O3.05,5.010
Li0.6Cs1Sr2Nb3O10,5.010
Hf0.8Y0.2P1.55S0.45,5.010
La1.7Ba0.3Cu0.99Zn0.01O4,5.000
Bi2Sr1.4La0.6Cu1O6.42,5.000
Li0.5Nb1O2,5.000
Ca0.4Ba1.35La1.25Cu3O6.9,5.000
La1.65Nd0.2Ca1.15Cu2O5.99,5.000
Sr2.5Ca11.5Cu24O41,5.000
Sm0.7Pr0.3Ba2Cu3O6.8,5.000
Tl1Sr1.5Ce0.5Ca1Cu2O7,5.000
Ca0.1La1.25Ba1.65Cu3O6.985,5.000
Sr2Ca12Cu24O41,5.000
Na0.35Co1H2.6O3.3,5.000
Sr11Ca12Cu24O41,5.000
La0.68Eu0.2Sr0.12Cu1O4,5.000
Na0.3Co1H2.6O3.3,5.000
C2Na1,5.000
Mo2N1,5.000
Sr0.2Mo1Se2,5.000
Hf1V1.7Fe0.3,5.000
Ti0.534Nb0.193Si0.273,5.000
Ti0.588Nb0.162Si0.250,5.000
Ti0.528Nb0.148Si0.196B0.127,5.000
Si1,5.000
Nb0.412Mo0.133Si0.455,5.000
Nb1Se3,5.000
Ba6.62Si46,5.000
Co1Zr2,5.000
Mo0.725Nb0.061Re0.187,5.000
Ru0.46V0.54,5.000
Ru0.4W0.6,5.000
N0.34Re1,5.000
C1Hf0.9Ta0.1,5.000
C1Re0.06W1,5.000
Nb1S2,5.000
Sc3.5Dy1.5Ir4Si10,5.000
Ho1Ni1.993Co0.014B2C1,5.000
Au0.2Nb0.8,5.000
C0.9Nb1,5.000
Nb0.738Ga0.184Mn0.078,5.000
B2Mg1,5.000
Zr1Ru1Si1,5.000
Nb2S1C0.9,5.000
Pb1Mo6Se7.55,5.000
Sc5Co4Si10,5.000