formula,Tc,type
Ba1.18Cu1.39O1.24Sr0.58Y2.04,50.0,original
Ba0.64Cu1.39Nd4.84O1.32Sr1.46,50.0,original
Ba0.64Cu1.27O1.35Sr1.46Y2.04,50.0,original
As0.65Fe1.02H2.12Pr0.75,50.0,original
Ba1.72Cu1.39O1.2Y2.04,50.0,original
As0.65F1.19Fe1.02Sm6.8,50.0,original
Ba1.72Cu1.39O1.15Y2.04,50.0,original
As0.65F0.67Fe1.02Sm6.8,50.0,original
Ba1.72Cu1.39O1.16Y2.04,50.0,original
Ba1.29Cu1.39La0.25O1.34Y2.04,50.0,original
As0.65F0.51Fe1.02Sm6.8,50.0,original
Bi3.16Ca1.05Cu0.76I10.04O1.65Sr3.22,50.0,original
Ba1.72Cu1.97O1.59Y2.04,50.0,original
As0.65Fe1.02Ho10.97,50.0,original
Ba1.72Cu1.27O1.29Y2.04,49.0,original
Cu1.24O1.4Re0.32Sr3.22Y2.04,49.0,original
Ba1.72Cu1.39O1.16Y2.04,49.0,original
Ba1.72Cu2.02O1.59Pr0.36Y0.85,49.0,original
Ba1.72Cu1.97O1.59Y2.04Zn0.13,49.0,original
Ba0.1Ca0.43Cd5.88Cu0.76O1.31Pb1.51Sr2.34Y0.85,49.0,original
Ba0.64Ca1.05Cu1.37La1.11O1.31,49.0,original
Ba1.29Ca0.24Cu1.39O1.08Sr0.4Yb6.41,49.0,original
Ba1.72C0.36Cu0.76N1.68O1.31Sr3.22Tl4.41,49.0,original
Ba1.72C0.31Cu0.76N3.45O1.31Sr3.22Tl4.41,49.0,original
Ba1.72Cu0.76N1.09O2.15Sr3.22Tl4.41,49.0,original
Ce2.81Cu0.76Eu10.27O2.15Ru2.65Sr3.22,49.0,original
Ba0.43Cu1.39O1.28Pr0.28Sr1.81Y1.09,49.0,original
Ba0.21Cu1.39O1.28Pr0.28Sr2.16Y1.09,49.0,original
Ba1.72Cu0.2O1.08Tl8.46,49.0,original
Ba1.72Cu1.34O1.27Sm6.8Zn0.13,49.0,original
Ba1.72Cu2.02O1.59Pr0.28Y1.09,49.0,original
Cu0.76Gd8.95O1.59Ru2.65Sr3.22,49.0,original
As0.65F0.93Fe1.02Sm6.8,49.0,original
As1.47Ca0.89Fe2.3,49.0,original
Ca0.43Cu1.03O1.29Sr3.22Y0.85,49.0,original
Ba1.51Cu1.39O1.33Y2.04,49.0,original
Ba1.29Cu1.39O1.23Sr0.4Yb9.91,49.0,original
As0.65Fe1.02Sm6.04Th0.31,49.0,original
Ba1.72Cu1.39O1.31Pr0.28Y1.09,49.0,original
Ba1.61Cu2O1.59Y2.04,49.0,original
Ba0.64Ca0.55Cu1.39La1.11Nd1.84O1.34,49.0,original
Bi2.82Ca1.05Co0.14Cu0.73O1.59Pb0.53Sr3.22,49.0,original
Ba1.72Cu1.39O1.17Y2.04,49.0,original
Bi2.82Ca1.05Cu0.74O1.59Pb0.53Sr3.22,49.0,original
Ba2.8Ca0.3Cd7.06Cu3.91La3.98O3.92,49.0,original
As0.65Fe1.02Pr0.75,49.0,original
As0.65F0.93Fe1.02Gd8.95,49.0,original
Ba1.29Ca0.18Cu1.39O1.06Sr0.4Yb6.91,49.0,original
Ba1.72Cu1.39Nd4.34O1.27,49.0,original
Cu0.76Gd8.95O1.59Ru2.09Sr3.22,49.0,original
Ba1.72Cu1.95O1.59Y2.04,49.0,original
Ba1.72Cu1.33O1.29Y2.04,48.0,original
Bi3.16Ca0.68Cu0.76Gd2.61O1.59Sr3.22,48.0,original
Bi3.16Ca0.68Cu0.76O1.59Sr3.22Y0.37,48.0,original
Ba1.72Cu1.39O1.17Y2.04,48.0,original
Ba1.72Cu1.33O1.26Y2.04,48.0,original
Ba1.08Ca0.25Co0.96Cu1.24Er4.86O1.26Sr0.75,48.0,original
Ba1.72Cu1.39Lu2.61O1.29,48.0,original
Ba3.88Cu3.91Nd7.84O3.43Pr0.28,48.0,original
Ba3.12Ca0.3Cu3.91Gd1.7La4.12O3.96,48.0,original
Ba1.29Ca0.24Cu0.76O1.08Sr0.4Yb6.41,48.0,original
Bi0.29Cu0.76O2.15Sr6.74Tl3.05,48.0,original
Cr0.18Cu0.13O0.75Sr2.52Tl4.41,48.0,original
Ba1.18Cu1.39La1.54O1.23,48.0,original
Cu0.76Gd8.95O1.59Ru2.65Sr3.22,48.0,original
Ba1.72Cu1.39H1.68O1.31Y2.04,48.0,original
Cu0.76Gd8.95O1.59Ru2.09Sr3.22,48.0,original
Ba1.72Cu1.36O1.24Y2.04,48.0,original
Ba1.72Cu0.13Hg7.24O0.48,48.0,original
Bi3.16Ca0.51Cu0.76O1.59Pr0.31Sr3.22,48.0,original
Ba1.56Cu1.39Gd10.31O1.31,48.0,original
As0.65F0.51Fe1.02Nd4.84,48.0,original
As0.65F0.46Fe1.02Nd4.84,48.0,original
As0.65F0.41Fe1.02Nd4.84,48.0,original
As0.65Ce5.81Fe1.02H0.73,48.0,original
As0.65Ce5.81Fe1.02H0.7,48.0,original
Ba1.72Cu1.39H0.51O1.18Y2.04,48.0,original
Ba0.64Cu1.08Er7.65Fe0.38O1.44Sr1.46,48.0,original
Ca1.36Cu0.76La2.19O1.03,48.0,original
Ba1.72Cu1.3O1.27Y2.04Zn0.27,48.0,original
Ba1.51Cu1.39Nd5.84O1.29,48.0,original
Ba1.72Ca0.55Cu2.4La2.12O2.4Pr0.21,48.0,original
Ba1.72Cu1.39O1.28Pr0.21Y1.32,48.0,original
Ca1.05Cu0.76La2.33O1.04,48.0,original
Ba1.72Ca0.15Cu1.39O1.03Y1.37,48.0,original
Ba1.72Cu1.99O1.59Y2.04,48.0,original
As0.65F0.2Fe1.02Nd4.84,48.0,original
Ba1.72Cu1.36O1.23Y2.04,48.0,original
Bi3.16Ca1.05Cu0.76O1.68Sr3.22,48.0,original
Ba1.72Cu1.39H1.06O1.18Y2.04,48.0,original
Ba1.72Cu1.39O1.16Y2.04,48.0,original
Ba1.72Cu1.2O1.29Y2.04Zn0.58,48.0,original
Bi3.16Ca1.05Cu0.76O1.7Sr3.22,48.0,original
Ba1.51Cu1.39O1.26Y2.04,48.0,original
As1.31Ca0.9Fe1.02Sb0.16,48.0,original
Ba0.91Ca0.3Cu1.39La1.62O1.34,48.0,original
Ba1.72Cu1.32O1.31Y2.04Zn0.21,48.0,original
Ba1.51Cu1.39O1.3Sm8.19,47.0,original
Ba1.72Cu0.13O1.05Tl8.96,47.0,original
B0.28Ba1.08Cu1.08O1.31Sr0.75Y2.04,47.0,original
Ba1.72Cu1.39O1.16Y2.04,47.0,original
Cu0.13F10.35Sr3.22,47.0,original
Cu1.39O1.59Pb6.37Sr3.22Y1.68,47.0,original
Ba1.72Cu1.36H1.39O1.31Y2.04,47.0,original
Ba0.75Ca0.3Cu1.39La0.97O1.36Y1.09,47.0,original
Ba1.72Cu1.98O1.59Y2.04,47.0,original
Ba0.64Ca1.05Cu1.39La1.11O1.31,47.0,original
Ba1.29Cu1.39O1.21Sr0.4Yb9.91,47.0,original
Ba1.29Ca0.3Cu1.39O1.07Sr0.4Yb5.91,47.0,original
Ba1.29Ca0.3Cu1.39O1.04Sr0.4Yb5.91,47.0,original
Cr0.13Cu0.13O0.75Sr2.69Tl4.41,47.0,original
Ca3.54Cu0.76O1.34,47.0,original
Ca3.54Cu0.76O1.27,47.0,original
Ba1.83Ca0.3Cu2.65La2.69O2.65Yb1.91,47.0,original
Ba1.72Cu1.39O1.28Pr0.28Y1.09,47.0,original
Ba1.51Cu1.39O1.27Pr0.28Y1.09,47.0,original
Ba1.72Cu1.99O1.59Y2.04,47.0,original
Ba1.4Cu1.39Lu1.93O1.29Pr0.28Sr0.22,47.0,original
Ba1.72Cu1.27O1.3Sm6.8,47.0,original
Ba1.72Cu2.01O1.59Y2.04,47.0,original
Ba1.18Cu1.39La0.54O1.26Pr0.13Sr0.58,47.0,original
Ca0.24Cu0.76Ga1.1O1.31Sr3.22Tm4.99,47.0,original
As0.65Ce5.81F0.46Fe1.02,47.0,original
As0.65Ce5.81F0.51Fe1.02,47.0,original
As0.65F0.83Fe1.02Nd4.84,47.0,original
As0.65F0.41Fe1.02Sm6.8,47.0,original
As0.65Fe1.02Sm6.11U0.28,47.0,original
As0.65Fe1.02Nd4.84,47.0,original
As0.65Fe1.02Tb13.87,47.0,original
As0.61F0.51Fe1.02Sm6.8,47.0,original
As0.65F0.46FeNd4.84,47.0,original
Bi6.54Ca2.29Cu2.02O4.03Sr4.98Tm7.72,47.0,original
Ba1.13Ca0.18Cu1.39La1.47O1.33,47.0,original
As0.65F0.69Fe1.02Pr0.75,47.0,original
As0.65Fe1.02H1.39Sm6.8,47.0,original
As0.65F1.45Fe1.02Nd4.84,47.0,original
Ba1.72Cu1.28O1.31Y2.04Zn0.34,47.0,original
Ba1.24Cu1.39La1.47O1.33,47.0,original
Ba3.02Cu3.28La0.83O3.32Y4.44,46.0,original
Ba1.72Co0.68Cu1.28O1.31Y2.04,46.0,original
Ba1.72Cu1.2Ni0.56O1.28Y2.04,46.0,original
Ba3.88Cu3.91O3.39Y4.44,46.0,original
Cu1.17Fe0.19O1.34Sr3.22Y2.04,46.0,original
Cu0.13F12.08Sr3.22,46.0,original
Ba0.64Cu0.13F10.35Sr3.22,46.0,original
Ba1.72Cu1.39O1.21Pr0.21Y1.32,46.0,original
Ba1.72Co0.41Cu1.32Er7.65O1.25,46.0,original
Ba1.29Ca0.3Cu1.39O1.07Sr0.4Yb5.91,46.0,original
Cu0.13F10.35Sr3.22,46.0,original
Ce2.81Cu0.76Eu10.27O2.15Ru2.65Sr3.22,46.0,original
Ba1.72Cu0.1O1.58Y2.04,46.0,original
Ba1.4Cu1.39O1.29Pr0.28Sr0.22Yb5.91,46.0,original
Ca0.3Cu0.76Fe0.38Hg3.57O1.23Sr3.22Y1.09,46.0,original
Ba1.72Cu1.25Er7.65O1.29Zn0.34,46.0,original
Ba1.72Cu1.3Er7.65O1.3,46.0,original
Ba1.51Cu1.39Eu6.81O1.23Pr0.13,46.0,original
Ba1.72Cu2.01O1.59Pr0.13Y1.56,46.0,original
As0.65F0.72Fe1.02Nd4.84,46.0,original
As0.65F1.45Fe1.02Nd4.84,46.0,original
As0.65Ce5.81F1.45Fe1.02,46.0,original
As0.65Fe1.02Sm5.42U0.64,46.0,original
Fe2.3Na3.91Se1.15,46.0,original
Ba1.35Cu1.39La1.47O1.33,46.0,original
As0.65Fe1.02Gd8.95H1.02,46.0,original
Ba1.72Cu1.39Er4.55O1.31Pr0.28,46.0,original
Ba1.72Cu1.39Nd4.59O1.24,46.0,original
As0.65Ce5.81Fe1.02H2.12,46.0,original
As0.65F0.51Fe1.01Sm6.8,46.0,original
Ba1.29Cu1.39La1.47O1.33,46.0,original
As0.65Ce5.81Fe1.02H0.66,46.0,original
Ba1.72Cu1.3O1.31Y2.04Zn0.27,46.0,original
Ca0.35Cu1.04O1.3Sr3.24Y0.97,46.0,original
Ba1.72Cu1.39O1.18Y2.04,46.0,original
Ba1.72Cu2O1.59Y2.04,46.0,original
Ba1.72Cu1.39O1.31Pr0.28Y1.09,46.0,original
Ba1.72Cu1.39O1.16Y2.04,46.0,original
As1.47Ca0.91Fe2.3,46.0,original
As0.65F0.41Fe1.02Nd4.84,46.0,original
Ba1.72Cu0.13O1.09Tl8.96,46.0,original
Ba1.72Cu1.39O1.3Pr0.28Y1.09,46.0,original
Ba1.72Cu1.39O1.29Pr0.28Y1.09,46.0,original
Cu0.13La2.33O0.48,46.0,original
As1.47Ca0.87Fe2.3,46.0,original
Ba0.97Cu1.39La1.54O1.29Sr0.4,46.0,original
Ba1.72Cu1.39O1.27Pr0.13Y1.56,46.0,original
Ba0.64Cu1.08Fe0.38Ho10.97O1.44Sr1.46,46.0,original
Cu0.13La2.55O0.5,46.0,original
As0.65Fe1.02Y2.04,46.0,original
Ba0.97Cu1.39La1.4O1.3Sr0.58,46.0,original
Ba1.72Cu1.31O1.31Y2.04,45.0,original
Ba1.72Cu1.27Ni0.31O1.26Y2.04,45.0,original
Ba1.72Cu1.27O1.25Y2.04Zn0.38,45.0,original
Ba1.72Cu1.2O1.24Y2.04Zn0.58,45.0,original
Ba1.72Cu1.33La1.11O1.26,45.0,original
Ba1.72Cu1.39O1.16Y2.04,45.0,original
Ca1.05Cu0.76La2.26O1.03,45.0,original
Ba0.64Ca1.05Cu1.33La1.11O1.27,45.0,original
Bi3.16Ca2.91Cu0.76O1.74Pr0.36,45.0,original
Cu1.27O1.28Sr3.22WY2.04,45.0,original
Cu0.13La2.55O0.51,45.0,original
Cu1.39O2.43Sr3.22Tl8.96Y4.44,45.0,original
Ba1.72Cu1.39O1.24Sm6.8,45.0,original
Ca0.3Cu0.76Ga1.1O1.31Sr2.87Y1.09,45.0,original
Ba1.72Cu0.13Hg5.77O0.59W,45.0,original
Ba1.29Cu1.39Nd5.84O1.28,45.0,original
Cu0.76O1.31Sr2.87Tl4.41Yb9.91,45.0,original
Cu0.13La2.55O0.48,45.0,original
Ba1.72Ca0.18Cu1.39Lu2.27O1.28,45.0,original
Cu1.25O1.31Sr3.5Y1.66,45.0,original
Bi2.49Ca2.29Cu1.39O2.16Pb1.18Sr3.22,45.0,original
Cu0.13La2.55O0.5,45.0,original
O1.03Ru1.25Sr3.22Y2.04,45.0,original
Ba0.86Cu0.13La0.83O0.75Tl4.41,45.0,original
Ba1.08Cu1.39O1.27Pr0.28Sr0.75Y1.09,45.0,original
Cu0.13La2.55O0.49,45.0,original
Ba1.72Cu1.39F5.69O1.03Y2.04,45.0,original
Ba1.72Cu0.13Hg7.24O0.5,45.0,original
Ba1.72Cu1.27O1.28Sm5.42Zn0.38,45.0,original
Ba1.18Cu1.39La1.54O1.29,45.0,original
Cu0.76Gd8.95O1.59Ru2.65Sr3.22,45.0,original
Ba1.72Cu1.37O1.21Y2.04,45.0,original
Ba1.72Cu1.34O1.27Y2.04Zn0.15,45.0,original
Ba1.18Cu1.39La0.61O1.27Pr0.13Sr0.58,45.0,original
O1.03Ru2.37Sr3.22Y2.04,45.0,original
Ce3.41Cu0.76Gd12.57O2.15Ru2.65Sr3.22,45.0,original
Ba0.64Cu1.27O1.31Sr1.46Y1.56,45.0,original
S2.07Ti4.19,45.0,original
As0.65F0.83Fe1.02Sm6.8,45.0,original
As0.65Fe1.02Tb12.48Th0.28,45.0,original
As0.65F0.93Fe1.02Sm6.8,45.0,original
As0.65Dy10.45F0.41Fe1.02,45.0,original
As0.65F0.46Fe1.02Pr0.75,45.0,original
As1.47F4.07Fe2.3Gd36.12O0.25Te2.17,45.0,original
As0.65Fe1.02H1.5Sm6.8,45.0,original
As0.65Ce5.81Fe1.02H1.02,45.0,original
Ba1.72Cu1.39O1.29Pr0.28Y1.09,45.0,original
Ba1.72Cu1.39O1.19Sm6.8,45.0,original
Ba1.72Ca0.13Cu1.39O1.03Y1.42,45.0,original
Ba1.29Ca0.18Cu1.39O1.25Sr0.4Yb6.91,45.0,original
Ba1.72Cu1.97O1.59Y2.04,45.0,original
Ba1.72Cu1.39O1.32Pr0.24Y1.21,45.0,original
Ba1.51Cu1.39Gd8.95O1.32Pr0.13,45.0,original
As0.65Fe1.02Pr0.75,45.0,original
Ba1.72Cu1.39O1.25Pr0.28Y1.09,45.0,original
Ba1.51Cu1.39O1.23Y2.04,45.0,original
Ce2.81Cu0.76Eu10.27O2.15Ru2.65Sr3.22,45.0,original
Ba1.72Cu1.98O1.59Y2.04,45.0,original
Ba1.23Cu1.39La0.34O1.35Y2.04,45.0,original
Ba1.72Cu1.39O1.2Y1.8,45.0,original
Ca1.05Cu0.76La2.12O1.03Sr0.22,44.0,original
Cu1.2O1.37Re0.39Sr3.22Y2.04,44.0,original
Cu1.39Nd9.83O2.43Sr3.22Tl8.96,44.0,original
B0.28Ba0.64Cu1.08O1.31Sr1.46Y2.04,44.0,original
Ba1.72Ce0.41Cu2.02Dy9.39O1.59,44.0,original
Ba1.72Cu1.33O1.25Y2.04,44.0,original
Ba0.64Ca1.05Cu1.36La1.11O1.31,44.0,original
Cu0.13Nd0.35Sr1.28,44.0,original
Cu0.13Gd0.8Sr1.28,44.0,original
Cu0.13Sm0.57Sr1.28,44.0,original
Ba1.72Cu1.36O1.25Y2.04,44.0,original
Ba1.29Cu1.39O1.28Pr0.28Sr0.4Y1.09,44.0,original
Ba1.51Cu2.02O1.59Y2.04,44.0,original
Ba1.72Cu1.33Dy10.45O1.3Zn0.17,44.0,original
Ba1.72Cu2O1.59Y2.04,44.0,original
Ba1.72Cu1.26Er7.65O1.3,44.0,original
Ba1.18Cu1.39La0.97O1.29Sr0.58,44.0,original
Ce3.41Cu0.76Eu9.58O2.15Ru2.65Sr3.22,44.0,original
Cu0.13La2.33O0.48,44.0,original
Cu0.76La1.4O0.97Pb1.18Sr1.99,44.0,original
As0.65Fe1.02Pr0.75,44.0,original
As0.65Ce3.53F0.8Fe1.02Gd3.33,44.0,original
As0.65Dy10.45Fe1.02,44.0,original
Ba1.72Cu1.27O1.24Y1.56Zn0.38,44.0,original
Fe2.3Li7.24Se1.15,44.0,original
As1.47Ca0.87Fe2.3,44.0,original
As0.65F0.41Fe1.02Pr0.75,44.0,original
Ba1.72Cu1.27O1.26Y2.04,44.0,original
Ba0.81Ca0.3Cu1.39La1.76O1.37,44.0,original
Ba1.18Cu1.39La1.54O1.28,44.0,original
Ba1.72Cu1.39H1.87O1.18Y2.04,44.0,original
As0.65Fe1.02Tb13.87,44.0,original
Ba1.42Cu1.39O1.32Sm8.74,44.0,original
Ba1.72Cu1.39O1.16Y2.04,44.0,original
B0.28Ba0.64Cu1.08O1.31Sr1.46Y1.68,44.0,original
Bi6.54Ca2.29Cu2.02O3.82Sr4.98Y2.04,44.0,original
Ba1.72Cu1.3O1.31Y2.04Zn0.27,44.0,original
Ba1.72Cu1.36O1.23Y2.04,44.0,original
Ba1.72Cu1.39O1.2Y2.04,44.0,original
Ba1.51Cu1.39Nd5.84O1.34,44.0,original
Ba1.72Cu1.33O1.31Y2.04Zn0.17,44.0,original
Ba1.72Cu1.39O1.04Y1.56,44.0,original
Cu0.76Fe1.02O1.5Sr3.22Y2.04,44.0,original
As0.65F1.45Fe1.02Sm6.8,44.0,original
Bi3.16Ca0.55Cu0.76O1.59Pr0.28Sr3.22,44.0,original
As0.65Fe1.02H0.17Sm6.8,44.0,original
Cu0.76Dy4.13Gd5.33O1.59Ru2.65Sr3.22,44.0,original
Ba1.72Cu1.36O1.21Y2.04,44.0,original
Cu1.3O1.3Re0.17Sr3.22Y2.04,44.0,original
Ba1.08Cu1.39O1.22Sr0.75Yb9.91,44.0,original
As0.65Ce5.81Fe1.02H1.39,44.0,original
Cu1.27O1.28Re0.24Sr3.22Y2.04,43.0,original
Cu1.2Mo0.22O1.34Sr3.22Y2.04,43.0,original
Cu1.17Mo0.28O1.42Sr3.22Y2.04,43.0,original
Cu1.2Fe0.13O1.28Sr3.22Y2.04,43.0,original
Ca1.05Cu0.76La2.4O1.04,43.0,original
Ba1.72Cu1.39O1.31Y1.56Zn0.38,43.0,original
Cu1.39O2.43Pr1.53Sr3.22Tl8.96,43.0,original
Cu0.13Sm0.43Sr1.32,43.0,original
Cu0.13Sr1.28,43.0,original
Cu0.13La2.55O0.51,43.0,original
Ba1.72Cu1.3O1.27Y1.68Zn0.27,43.0,original
Ba1.72Cu1.27O1.24Y1.56Zn0.38,43.0,original
Ba1.29Cu1.39La8.28O1.36Y1.8,43.0,original
Ca1.05Cu0.76O1.24Sr3.22Tl4.41,43.0,original
Ca1.05Cu0.76O1.2Sr3.22Tl4.41,43.0,original
Bi2.82Ca1.05Co0.23Cu0.71O1.59Pb0.53Sr3.22,43.0,original
Ba1.72Cu0.76N0.49O2.15Sr3.22Tl4.41,43.0,original
Cu0.13O0.75Sr2.87Tl4.41,43.0,original
Ba1.18Cu1.39La1.62O1.22,43.0,original
Ba1.72Cu1.3Eu6.81Ga0.12O1.25,43.0,original
Ba1.72Cu1.32Ni0.11O1.31Y2.04,43.0,original
Cu0.13Gd0.8Sr1.28,43.0,original
Cu0.13La2.33O0.48,43.0,original
Ba1.51Co0.77Cu1.27O1.3Y2.04,43.0,original
Bi2.49Ca0.24Cu1.39O1.05Sr0.4Yb6.41,43.0,original
Ba1.72Cu1.22Er7.65O1.29Zn0.46,43.0,original
Cu0.89O1.54Ru2.09Sr3.22Y2.04,43.0,original
Cu0.76Gd8.95O1.59Ru2.65Sr3.22,43.0,original
Ca2.04Cl16.44Cu0.13,43.0,original
Ba0.64Cu1.39Gd8.04O1.28Sr1.46,43.0,original
As0.65Fe1.02Nd3.84Th0.64,43.0,original
As1.47Ca4.78Fe2.3Mg2.35O1.45Ti9.6,43.0,original
As0.65F0.41Fe1.02Pr0.75,43.0,original
As1.46Ca0.86Fe1.02,43.0,original
As1.31Ca0.75Ce1.25Fe1.02Sb0.16,43.0,original
As0.57Ca0.75Fe1.02Pr0.16,43.0,original
As0.57Ca0.85Fe1.02Nd0.64,43.0,original
Ba1.72Cu1.37O1.25Y2.04,43.0,original
Ba1.72Cu1.39O1.31Pr0.28Y1.09,43.0,original
Fe3.58Li7.24Se1.15,43.0,original
As0.65F0.67Fe0.96Sm6.8,43.0,original
As0.65Ce5.81Fe1.02,43.0,original
Ba1.72Cu0.13O0.48,43.0,original
Cu0.13Sr1.37,43.0,original
Cu0.13Sr1.25,43.0,original
As0.65F0.67Fe1.02Sm6.8,43.0,original
Ba1.72Cu1.39O1.27Sm6.11,43.0,original
Fe2.26K4.23Mn0.38Se1.15,43.0,original
Bi3.16Ca1.05Cu0.76O1.71Sr3.22,43.0,original
Ba1.72Cu1.39H2.27O1.18Y2.04,43.0,original
Al0.35Ba1.72Cu1.14O1.31Y2.04,42.0,original
Ba0.86Ca0.18Cu1.39O1.71Pb3.13Sr1.11Y1.32,42.0,original
Ba1.51Cu1.39Eu8.2O1.36,42.0,original
Ba1.72Ca0.12Cu1.24O1.25Y1.44Zn0.48,42.0,original
Cu1.27O1.31Re2.92Sr3.22Y2.04,42.0,original
Ba2.55Ca0.38Cu3.28La3.65O3.33,42.0,original
Ba1.72Cu1.39O1.2Y2.04,42.0,original
Cu0.13La2.55O0.51,42.0,original
Cu0.13Sr1.28,42.0,original
Ba1.72Cu1.3O1.31Y2.04Zn0.27,42.0,original
Cu0.13La2.55O0.49,42.0,original
Cu0.13La2.55O0.5,42.0,original
Ba1.72Cu1.27O1.27Sm6.11Zn0.38,42.0,original
Cu0.13La2.33O0.48,42.0,original
Cu0.13La2.55O0.48,42.0,original
Ba1.72Cu1.26Er7.65O1.3Zn0.21,42.0,original
Ba1.29Cu1.39Eu3.35O1.33Sr0.58,42.0,original
Ba1.51Cu1.39Gd10.76O1.32,42.0,original
Ca0.3Cu0.89Ga0.87O1.31Sr3.22Y1.09,42.0,original
As0.65F0.35Fe1.02Sm6.8,42.0,original
As0.65Fe1.02Tb13.87,42.0,original
As0.65F0.93Fe1.02Sm6.8,42.0,original
As1.47Ca4.78Fe2.3Mg2.35O1.45Ti9.6,42.0,original
Fe2.3Se1.15Yb7.91,42.0,original
Fe1.2H3.58Li6.06Se0.54,42.0,original
Ba3.02Cu3.28La2.26O3.4Y2.04,42.0,original
Ba1.35Cu1.39La1.47O1.33,42.0,original
Ba1.72Cu1.39O1.15Y1.8,42.0,original
As0.65F0.67Fe1.02Sm6.8,42.0,original
As1.47Ca0.95Fe2.3Nd0.23,42.0,original
Ba1.72Cu1.97Mn1.09O1.59Y2.04,42.0,original
Cu0.13La2.26O0.48,42.0,original
Ba0.64Cu0.13O0.75Sr1.46Tl4.41,42.0,original
Ba0.64Cu1.39La1.11O1.32Sr1.46,42.0,original
Ba1.72Cu1.39O1.24Pr0.13Y1.56,42.0,original
C10.41,42.0,original
As0.65F0.41Fe1.02Sm6.8,42.0,original
Ba0.64Ca0.43Cu1.39La1.11Nd2.34O1.36,42.0,original
Ce2.81Cu0.76Eu10.27Nb0.59O2.15Ru1.53Sr3.22,42.0,original
B1.62Mg3.13,42.0,original
As0.65F1.45Fe1.02Nd4.84,42.0,original
Ba1.72Cu1.3Ni0.18O1.25Y2.04,42.0,original
Ba1.72Cu1.39Nd4.09O1.27,42.0,original
Bi2.66Ca0.49Cu0.73O1.59Pb0.86Sr3.22Y0.73,42.0,original
Bi2.66Ca0.43Cu0.76O1.59Pb0.86Sr3.22Y0.85,42.0,original
Ba1.72Cu1.39O1.17Y2.04,42.0,original
Ba1.72Cu1.39Dy6.23O1.28Pr0.28,42.0,original
Cu0.13La2.3O0.48,42.0,original
Ba3.88Cu3.91O3.43Y4.44,42.0,original
As1.47Ca0.84Fe2.3,42.0,original
Ba0.86Cu0.13La0.83O0.75Tl4.41,42.0,original
Ba1.72Cu1.36O1.25Y2.04,42.0,original
Ca0.3Cu1.05O1.3Sr3.22Y1.09,42.0,original
Ba1.24Cu1.39La1.47O1.33,42.0,original
As0.65Ce5.81Fe1.02H0.17,42.0,original
Ba1.72Cu1.2Fe0.13Gd8.95O1.28,41.0,original
Ba1.72Cu1.28Gd8.95O1.29,41.0,original
Bi3.16Ca0.43Cu0.76O1.59Sr3.22Y0.85,41.0,original
Bi3.16Ca0.55Cu0.76O1.59Pr0.28Sr3.22,41.0,original
Bi2.32Ca1.3Cu0.76Ga0.53O1.59Sr2.87,41.0,original
Bi2.49Cu0.76O2.43Pb1.18Sr6.74,41.0,original
Ca0.3Cu0.76Ga1.1O1.31Sr3.22Y1.09,41.0,original
Ba0.1Ca0.18Cu1.27O1.31Sr2.34Y1.32,41.0,original
Cu0.13K0.96La2.26O0.48,41.0,original
Ba1.08Cu1.39Nd5.84O1.25Sr0.4,41.0,original
Ba1.72Cu1.39Lu2.61O1.07,41.0,original
Ba3.88Cu3.91Nd6.84O3.42Pr0.44,41.0,original
Ba1.29Ca0.18Cu1.39O1.03Sr0.4Yb6.91,41.0,original
Ca1.05Cu2.65O2.37Sr3.22,41.0,original
Ba2.8Ca1.05Cu3.38Fe0.82La3.26O4Y0.85,41.0,original
Ba1.72Cu1.39O1.3Pr0.13Sm5.42,41.0,original
Ba1.72Cu1.37O1.22Y2.04,41.0,original
Ba1.4Cu1.39O1.28Pr0.32Sr0.22Yb5.41,41.0,original
Ba1.72Cu1.37Li0.12O1.2Y2.04,41.0,original
Ba1.72Cu1.39Eu4.73O1.22Pr0.21,41.0,original
Cu0.76Gd8.95O1.59Ru2.65Sr3.22,41.0,original
Ca0.3Cu0.83Ga0.99O1.31Sr3.22Y1.09,41.0,original
B1.44Mg3.17,41.0,original
As0.65Ce5.81F0.72Fe1.02,41.0,original
As0.65F0.67Fe1.02Sm6.8,41.0,original
Cu0.13La2.29O0.48,41.0,original
As1.47Ca0.85Fe1.02,41.0,original
Ba0.64Cu1.24O1.36Sn0.11Sr1.46Y2.04,41.0,original
Cu0.13La2.33O0.48,41.0,original
Fe1.28H3.58Li5.77Se0.54,41.0,original
Ba1.72Cu1.39O1.14Y2.04,41.0,original
Cu0.13Sr1.28,41.0,original
Ba1.72Cu1.92O1.59Y2.04,41.0,original
Ba1.72Cu1.39Nd4.09O1.31,41.0,original
Ba1.29Ca0.18Cu1.39O1.25Sr0.4Yb6.91,41.0,original
Ba1.72Cu1.39O1.12Y1.56,41.0,original
As0.65Ca0.8Fe1.02H3.58,41.0,original
Ba1.72Cu1.97O1.59Y2.04Zn0.13,41.0,original
Ba1.72Cu1.36La1.11O1.3,41.0,original
Ba1.72Cu2.02O1.59Pr0.44Y0.61,41.0,original
B1.62Mg3.17,41.0,original
Fe1.2H3.58Li13.4Se0.54,41.0,original
Cu0.13La2.55O0.5,41.0,original
As0.65Ce5.81F0.93Fe1.02,41.0,original
Cu0.76Gd8.95O1.59Ru2.56Sr3.22,41.0,original
As0.65Ce5.81Fe1.02,41.0,original
As0.65F0.67Fe1.02La0.4Y0.85,41.0,original
Ba1.72Cu1.36O1.2Y2.04,41.0,original
Ba1.72Cu1.39Lu1.59O1.24Pr0.36,41.0,original
Ba1.02Ca0.3Cu1.39La1.47O1.31,41.0,original
As0.65Fe1.02Sm6.8,41.0,original
As0.65F0.46FeNd4.84,41.0,original
Ba1.72Cu1.39O1.17Y2.04,41.0,original
Ba1.72Cu1.2Ni0.56O1.3Y2.04,40.0,original
Cu0.13La2.33O0.48,40.0,original
Ba1.72Cu1.22Gd8.95O1.31,40.0,original
Ba1.72Cu1.39O1.16Y2.04,40.0,original
Bi3.16Ca0.43Cu0.76O1.68Sr3.22Y0.85,40.0,original
Ba1.72Cu1.39O1.3Pr0.28Y1.09,40.0,original
Cu0.13F5.12La2.55O0.48,40.0,original
Ba1.72Cu1.39O1.18Y2.04,40.0,original
Ba1.72Ca0.43Cu0.76Nd2.34O1.27Tl4.41,40.0,original
Cu0.13Nd0.64Sr1.18,40.0,original
Ba0.86Ca0.18Cu1.39O1.48Pb2.48Sr1.46Y1.32,40.0,original
Cu1.27O1.31Sr3.22Y2.04,40.0,original
Cu0.13La2.53O0.51,40.0,original
Cu0.13La2.52O0.5,40.0,original
Cu0.13La2.49O0.49,40.0,original
Ba1.45Cu1.39La1.47O1.33,40.0,original
Ca0.24Cu1.07O1.3Sr3.22Y1.21,40.0,original
Bi3.16C0.41Cu2.02O5.22Sr13.79,40.0,original
Cu0.13F10.35Sr3.22,40.0,original
Ba1.72Cu0.13Hg7.24O0.58,40.0,original
Ba1.08Ca0.3Cu1.39Nd5.84O1.28,40.0,original
Ba0.64Ca1.05Cu1.39La0.68O1.31Pr0.21,40.0,original
Ba1.72Cu2.02O1.59Pr0.44Y0.61,40.0,original
Cu0.76N0.49O2.15Pb1.51Sr6.74Tl2.14,40.0,original
Ba0.64Co0.41Cu1.32La1.11O1.31,40.0,original
Ca1.25Cu0.76La2.29O1.03,40.0,original
Cu0.13Nd0.54Sr1.21,40.0,original
Ba1.72Cu0.13Hg5.41Mo0.16O0.62,40.0,original
Ba1.72Cu0.13O1.05Tl8.96,40.0,original
Cu0.13La2.4O0.48,40.0,original
Ca1.05Cu0.76O1.26Sr3.22Tl4.41,40.0,original
Ba1.72Ca0.3Cu2.27Er1.45La2.26O2.25,40.0,original
Ba1.72Cu1.37O1.21Y2.04,40.0,original
Ba1.72Cu2.02Eu4.04O1.59Pr0.28,40.0,original
Ba0.97Cu0.13La0.68O0.75Tl4.41,40.0,original
Ba1.72Cu1.39O1.31Pr0.28Y1.09,40.0,original