formula,Tc,type
As2.85Ca1.05Fe4.22K3.5Ni0.23,0.0,synthetic
As0.65Cr0.48Nd0.89Pr0.59,0.0,synthetic
Ga0.52Si0.12Yb5.4,0.0,synthetic
Ca2.06Pb2.53,0.0,synthetic
As0.53Cr0.41Pr0.64Tb3.99,0.0,synthetic
Co7.89Hf9.88Si0.58,0.0,synthetic
Ca1.8Cr55.43O0.92,0.0,synthetic
As0.64Ba0.56Fe1.02O0.15,0.0,synthetic
Cr0.37La0.56O0.48Sr1.46Ti2.51,0.0,synthetic
Mg13.03Na0.73Si0.92Sr1.11,0.0,synthetic
As2.38Fe4.86La3.98O0.42,0.0,synthetic
Ir1.27Sb2.13,0.0,synthetic
Ca3.54O1.05Os2.82,0.0,synthetic
O0.3Os3.03Sr1.89,0.0,synthetic
As0.65Ce5.81Co0.41Cr0.29H1.35,0.0,synthetic
Ni0.95P1.78Sr1.46,0.0,synthetic
As0.68Ti4.33Zr3.82,0.0,synthetic
F10O0.14Sr3.1Ti3.9,0.0,synthetic
Co1.46Fe0.57O1.03Os3.03Sr3.22,0.0,synthetic
Ag3.8As2.3Ca1.05Fe3.68,0.0,synthetic
Ca0.27Cr0.29Fe0.22H3.58P0.61Sr0.8,0.0,synthetic
As1.15H2.87Pb1.8Ti6.82Zr9.82,0.0,synthetic
La0.3Pt2.29Sb0.45Sn0.39Sr0.69,0.0,synthetic
Al0.39Mn42.54Sn0.39,0.0,synthetic
Ba0.26Ca1.49Cu2.67P8.62,0.0,synthetic
As2.4Ca2.71F14.43Fe3.73Sr0.47Ti0.81,0.0,synthetic
As1.93Ca0.61Fe3.13,0.0,synthetic
As7.57Ca11.73Fe11.83Ir6.37P1.75,0.0,synthetic
As0.65La0.21Ni2.3Sm4.24,0.0,synthetic
Ag2.18Ir0.69P1.78Sr1.46,0.0,synthetic
Bi1.47S1.57,0.0,synthetic
Ba0.64Pt7.15S0.57Sb0.34,0.0,synthetic
Ca0.69O0.2Os3.03,0.0,synthetic
Bi1.46Cu0.14S0.94,0.0,synthetic
As1.47Ba0.64Mn14.15Rh1.3,0.0,synthetic
As0.94Bi0.99Ca0.23Fe1.37K5.03,0.0,synthetic
N0.24O1.01Ti14.95,0.0,synthetic
Ca1.05Cr0.48O0.47,0.0,synthetic
Pt3.24Sb0.9Sr1.46,0.0,synthetic
B1.05La3Ni10.45O0.87Sr0.9,0.0,synthetic
Bi0.15F3.68Fe0.32La1.11S1.06,0.0,synthetic
Cr0.91Na3.91O0.4,0.0,synthetic
Bi0.18Ca0.76O0.39Os3.03,0.0,synthetic
As0.31La0.52Ni3.34Si0.19Zr1.45,0.0,synthetic
Bi1.84Cu0.27S0.71Se0.19Y0.17,0.0,synthetic
Ca2.29O1.03Os3.03Zn1.51,0.0,synthetic
Ge0.57Ni0.3Si0.11Sr1.46,0.0,synthetic
Li7.24Os1.52,0.0,synthetic
Ni1.42P1.51Zr3.7,0.0,synthetic
As2.02Ca1.05Fe2.99K1.66,0.0,synthetic
Cr0.17N5.82Nb1.1Sr0.79,0.0,synthetic
Ca0.13Cu1.7O0.89Se0.84Sr4.53Tl1.04,0.0,synthetic
Cr1.96Cu1.39Eu5.64O2.71,0.0,synthetic
Au7.67Sn0.68Sr1.46,0.0,synthetic
Al0.19Ba0.37Mn31.89Se0.85,0.0,synthetic
Cr0.73Hf9.88P0.81,0.0,synthetic
Cr0.28O0.7Os1.16Sr3.22Y0.61,0.0,synthetic
Bi1.47Ce5.39F2.5Nd0.19S2.07,0.0,synthetic
Cl0.84Cs1.11La2.39Te2.65,0.0,synthetic
B0.87La2.17N20.14Ru3.09Zr4.71,0.0,synthetic
Cr0.3N7.99S0.24Ti3.04,0.0,synthetic
Ba0.48Bi1.21S2.66,0.0,synthetic
Ba1.72Cu1.39Gd5.8O1.19Pr0.24,0.0,synthetic
Al0.52Ca3.89Cr0.69Fe0.47O1.23P0.92,0.0,synthetic
As0.43B0.32F3.7Mn14.15Sr0.98,0.0,synthetic
Fe1.05Se0.15Te1.48,0.0,synthetic
Cr0.14N9.88Nb0.23S0.6Zr5.13,0.0,synthetic
As0.45F3.85Mn14.15Sr1.03,0.0,synthetic
N11.74S0.71Ti8.52,0.0,synthetic
As1.25Ca0.52Fe2.6H1.48Li6.61,0.0,synthetic
Dy0.89O1.03Os3.03Sr4.82,0.0,synthetic
As0.16F2.46Fe1.02La1.11P0.1,0.0,synthetic
B0.17Ba0.44Bi2.53Mn14.15,0.0,synthetic
Mg13.03Si0.92Y1.86,0.0,synthetic
Ba0.32Ca0.56Fe0.13O0.45Os3.03,0.0,synthetic
Al0.33Li4.43Mg13.03Si1.31,0.0,synthetic
B0.15Co4.41Ni0.25P1.44,0.0,synthetic
As0.39B1.01Mn14.15Rh0.5,0.0,synthetic
Al0.76Mg13.03Si1.72,0.0,synthetic
Ag5.39Bi0.3P1.2Sr0.92,0.0,synthetic
Ge0.12O0.2Sr1.46Ti3.05,0.0,synthetic
C0.22Y2.04,0.0,synthetic
La2.55Sb0.7Te0.79,0.0,synthetic
B0.42La2.59Mn14.15Sb4.07,0.0,synthetic
Ba0.64Ge3.25Rh3.52S4.73Se0.92,0.0,synthetic
Ca2.29O1.26Os5.57,0.0,synthetic
Ba0.22Ca0.67Cu0.57O1.22Sr2.14Tl5.8,0.0,synthetic
Ca5.21O2.34Os5.48,0.0,synthetic
Ni2.3P1.78Rh0.61,0.0,synthetic
As0.7Ca0.79F14.2Fe1.1Na2.86Ni1.64,0.0,synthetic
Al0.28Ni5.63Si0.36Zr2.4,0.0,synthetic
As0.13Eu1.17Na3.18O0.32Ti8.52,0.0,synthetic
Li7.24Os0.59,0.0,synthetic
As1.08Ba0.64Fe2.28Se0.22,0.0,synthetic
Ca1.05Cr0.17Si0.19,0.0,synthetic
As3.12Ca3.54F15.12Fe4.86,0.0,synthetic
Pt3.75Sb1.15Sr1.46,0.0,synthetic
As0.65Fe1.02In1.02Sr3.22,0.0,synthetic
As0.18Fe1.02Se0.27Sr2.22,0.0,synthetic
Ce5.81Cr1.91Cu1.33O2.61,0.0,synthetic
La3.24Ni4.15O0.81,0.0,synthetic
Ba1.72Cu1.39O1.06Y2.02,0.0,synthetic
Ir1.41P2.23Sr1.24V0.42,0.0,synthetic
As1.7N5.82V2.94,0.0,synthetic
As0.28Ge0.36Nb3.34Si0.36,0.0,synthetic
La3.87Sb5.92V0.7,0.0,synthetic
C0.12Ca1.46Cr0.15,0.0,synthetic
Cr0.14N5.82Nb0.24,0.0,synthetic
Fe0.32La0.97Sb2.38,0.0,synthetic
Cu0.62Fe2.3O0.75Se1.02Sr5.18V0.12,0.0,synthetic
Co4.41Os0.92P1.17Sr2.03,0.0,synthetic
Ba1.72Cu1.39Gd0.43O1.05Y1.31,0.0,synthetic
Cr0.16N5.82Nb0.88Sr1.15,0.0,synthetic
Co8.96Ge1.31La0.89Zr0.44,0.0,synthetic
As0.65Cr0.36Mn0.24Sm6.8,0.0,synthetic
Ba0.64Pt0.89Sb1.15,0.0,synthetic
Ca2.29O1.03Os3.03Zn1.88,0.0,synthetic
F4.62Fe1.12K5.06Mn0.17Se0.48,0.0,synthetic
As0.38Ge0.46Ta5.24Te1.02,0.0,synthetic
As0.44La0.75Ni2.3Si0.17Sr0.14,0.0,synthetic
As0.49Cr0.38Ga0.15Pr0.6Yb1.85,0.0,synthetic
As0.53Cr0.41Nd5.55,0.0,synthetic
B1.61Co8.93Gd8.97,0.0,synthetic
Co6.76Ge0.3Hf9.88Si0.42,0.0,synthetic
Bi1.4Cr1.96Cu1.39O2.71,0.0,synthetic
Ba0.64Ge3.25Ir1.31Rh2.02S6.54,0.0,synthetic
Ca0.89Cr1.96Cu1.39O2.71,0.0,synthetic
O1.29Os6.1Pb6.23,0.0,synthetic
As2Ca0.6Fe3.93,0.0,synthetic
F3.98N7.1Ti5.13,0.0,synthetic
As0.47F0.12FeLa1.11P0.32,0.0,synthetic
Pt2.29Sb1.53Sr0.91,0.0,synthetic
Cr0.63N7.86Zr2.51,0.0,synthetic
Mn39.24N4.45Zn1.54,0.0,synthetic
Co4.41P1.75Sr1.48,0.0,synthetic
Ge0.54Sr1.46,0.0,synthetic
Cl8.18Cr0.17V0.44,0.0,synthetic
Co8.96La0.77Si0.42Sr0.95,0.0,synthetic
Ca3.49O1.03Os3.03,0.0,synthetic
Ca0.85Cu0.66O1.25Sr2.65Tl5.15,0.0,synthetic
N0.27Na1.45O0.63Ti11.21,0.0,synthetic
Cr1.03N5.82Nb0.39Rh0.9,0.0,synthetic
As0.34F1.13Fe0.52La1.11S0.67,0.0,synthetic
Cu0.59Fe1.02Ni1.96O0.87Se0.99Sr5.22,0.0,synthetic
Ba1.72Cu1.39O1.05Y1.82,0.0,synthetic
As0.3Fe1.56K0.78O0.11Se0.44Sr3.66,0.0,synthetic
Cr0.47O0.48Sr3.22,0.0,synthetic
Fe0.71Ir0.31La0.77Sb1.44,0.0,synthetic
Ba1.25O0.66Os3.03Sc2.73Y0.98,0.0,synthetic
As0.65Ni1.13Zr3.7,0.0,synthetic
Ca0.77Ir2.01O0.66Pb5.11,0.0,synthetic
As1.47Ba0.23Fe2K1.97Mn1.71Ru0.17,0.0,synthetic
La3.98Sb6.07Ti2.44V0.26,0.0,synthetic
Bi20.05Fe4.49La1.11Ru0.65,0.0,synthetic
Ba1.72Cu1.39O1.03Y1.67,0.0,synthetic
Ba1.72Cu1.39O1.05Y2.01,0.0,synthetic
O0.48Pd0.17Tb21.89,0.0,synthetic
As0.31Fe1.02La1.11Sb0.35,0.0,synthetic
As0.49Ce5.81CoFe0.45H2.87P0.28,0.0,synthetic
Cl8.18Ti2.96V0.17,0.0,synthetic
B1.62Er7.65Ni4.54,0.0,synthetic
Ni2.3Si0.87Sr1.36,0.0,synthetic
As0.65Ca0.48Fe0.33H3.58Ni1.17,0.0,synthetic
Ag6.82As0.38Mg2.1P0.52Sr0.27,0.0,synthetic
Fe0.61Ge0.17Se0.34Sr1.46,0.0,synthetic
Al2.03As0.71Ca4.78Fe2.3O1.03P1.64,0.0,synthetic
As0.65Ge0.73Ta4.35,0.0,synthetic
C0.94Fe0.38Mo0.47O1.45Ru2.64Sr5.86,0.0,synthetic
As0.39Ge0.48Si0.22Ta11.87,0.0,synthetic
Ba0.64Cr0.67O0.22Sn0.43V0.42,0.0,synthetic
Cr0.31N5.82Nb1.1Sr0.31,0.0,synthetic
Ge0.59Mg13.03Na2.82Si0.64,0.0,synthetic
As0.62F0.24Fe0.99La1.11,0.0,synthetic
Cr0.61Sr0.34Ti4.19,0.0,synthetic
Cu0.2Gd3.52P2.34Sr0.75,0.0,synthetic
Bi1.47Pr1.25,0.0,synthetic
B1.41Ca0.91Ni12.14Si0.39Zr2.56,0.0,synthetic
As0.2B0.81Fe1.14Zr3.7,0.0,synthetic
As0.37Bi0.91H1.14Ti5.63Zr4.98,0.0,synthetic
As0.65Co0.25Fe0.91Na3.91,0.0,synthetic
As0.51Co0.24Fe0.7Ir0.18Na3.91,0.0,synthetic
Ca5.95O2.68Os6.11,0.0,synthetic
Ba0.41O0.2Os3.03,0.0,synthetic
F1.93N5.82Ti1.55,0.0,synthetic
La2.83Ni0.56O0.14Si0.22,0.0,synthetic