formula,Tc
Sr3.1Ca5.9Bi0.4Y0.3Pb0.3Cu16.7O29,78
Bi1.8Pb0.2Sr2Ca1Cu2O8,78
Tl1Sr1.5Tb0.5Ca1Cu2O7,78
Tl1Sr1.5Dy0.5Ca1Cu2O7,78
Tl1Sr1.5Ho0.5Ca1Cu2O7,78
Bi2Sr2Ca1Cu2O8,78
La2.5Y0.5Ca1Ba3Cu7O16.574,78
Er1Ba2Cu4O8,78
Hg1Ba2Cu1O4.28,78
Y1Ba2Cu3O6.77,78
Hg1Ba2Cu1O4.21,78
Yb0.85Pr0.15Ba1.7Sr0.3Cu3O6.91,78
Y1Ba2Cu2.985Zn0.015O7,78
Y1Ba2Cu2.5Fe0.5O7.413,78
Y1Ba0.75Sr1.25Cu3O6.91,78
Bi2Sr2Ca1Cu2O8.24,78
Y1Ba2Cu3O7,78
Y1Ba1.7La0.3Cu3O7.1,78
Y1Ba2Cu3O6.7,78
Y1Ba2Cu2.9Ni0.1O6.92,77.9
Y1Ba2Cu2.95Ni0.05O6.93,77.9
Y1Ba2Cu2.94Zn0.06O6.9,77.9
Hg1Ba2Cu1O4,77.8
Bi2Sr2Ca1Cu2O8.28,77.8
La2.5Gd0.5Ca1Ba3Cu7O16.539,77.75
Bi1.7Pb0.3Sr2Ca1Cu2O8,77.7
Bi0.6Pb0.2S0.2Sr2Ca0.7Nd0.3Cu2O6.95,77.6
Y1Ba2Cu2.5Fe0.5O7.35,77.6
Y1Ba2Cu2.97Zn0.03O6.98,77.6
Fe0.5Ba2Y1Cu2.5O7.41,77.5
H1Cl3C61,77.5
Y1Ba2Cu3O8,77.5
Fe1Se1,77.5
Nb0.44Ti0.56,77.5
Ti0.64Nb0.34Ta0.02,77.5
Hf0.4Zr0.6V2,77.5
Ta0.2W0.8C1,77.5
La3Tl1,77.4
Ba1Fe1.28Ru0.72As2,77.4
Ca1Fe0.74Co0.26As1H1,77.4
Ca0.8La0.2Fe0.98Co0.02As2,77.4
Na1Fe1As1,77.3
Y1Ir2Rh2B4,77.3
C0.002N0.937Ta1,77.3
Fe1Se1,77.3
Fe1Se0.9S0.1,77.2
Fe1Se0.84S0.16,77.2
La1.85Sr0.15Cu0.982Co0.018O4,77.2
Bi2Sr2Cu1O6,77.2
Ca2Nb1O4,77.1
La1.875Ba0.125Cu1O4,77.1
Y1Ba2Cu3O6.35,77.1
Pu1Rh1Ga5,77.05
La1Os2,77
C0.64Mo1,77
Ag1.2Mo4.8S6,77
B5Mo1.9Zr0.1,77
Bi1Pb1Sb1,77
C1Mo0.85Ta0.15,77
In0.5La3Tl0.5,77
N0.8Nb1,77
Ta0.05V2Zr0.95,77
Nb1Se2,77
Nb3Rh0.05Pt0.95,77
Hf1V2,77
V0.75Ge0.212Al0.037,77
Mo0.65Pt0.05Re0.3,77
Ti0.64Nb0.32Ta0.04,77
La3In0.5Tl0.5,77
Lu1Ru1B2,77
Nb0.18Re0.82,77
Mo5P0.9B2.1,77
Nb0.991Ta0.009,77
Nb0.722Ga0.247Mn0.031,77
Nb0.96Ta0.04,77
La3Tl1,77
Nb0.4Zr0.6,77
Lu0.85Er0.15Ru1B2,77
Er0.97Tm0.15Rh4B4,77
V2Zr1,77
Hf0.2Zr0.8V2,77
Fe1Se0.736Sb0.184,77
Hf1N1,76.91
Mo0.95Hf0.05C0.65,76.9
Ho0.75Lu0.25Ni2B2C1,76.9
Nb1,76.9
La1Nd0.85Ce0.15Cu1O4,76.8
K1.1Bi1O3,76.8
La1.9Sr0.1Cu0.99Zn0.01O4,76.8
B5Mo1.8Sc0.2,76.7
Bi0.65Pb0.35,76.7
Ir1Mo1,76.67
Ir1Mo3,76.6
Mo0.85Pt0.15,76.6
Nb0.11Re0.78Ta0.11,76.6
Nb1Se2,76.5
V2Zr1,76.5
V2.58Zr0.42Si1,76.5
Bi0.56Pb0.44,76.5
Nb0.500Zr0.400Mo0.100,76.5
Lu1Ni0.91Co0.18B2C1,76.5
Zr2Rh1H0.28,76.5
V2Hf0.8Ti0.2,76.4
Er1Ni1.98Fe0.02B2C1,76.4
V3Ge0.9Al0.1,76.4
Tc2Y1,76.4
Fe1Se1,76.4
Fe0.98Se0.15Te0.9,76.35
Pr1.87Ce0.13Cu1O4,76.3
La1Fe1As0.2P0.8F0.1O0.9,76.3
Nb1,76.3
Fe1Se0.94,76.2
Sr0.57Eu0.43Fe1.76Co0.24As2,76.2
Ca10Pt3.42Fe9.58As18,76
Ho0.8Lu0.2Ni2B2C1,76
Ho0.9Lu0.1Ni2B2C1,76
Ho0.95Lu0.05Ni2B2C1,76
Lu0.9Er0.1Ru1B2,76
Ba1Fe1.7Zn0.08Co0.22As2,76
Ir0.64Rh0.3Se2,76
Nb0.984Ta0.016,76
Nb0.94Ta0.06,76
Er1Rh4B4,76
Pr1Fe0.95Co0.05As1O1,76
Nb0.18Re0.82,76
Fe1Se1S0,76
Y0.8Pr0.2Ni2B2C1,76
Ti0.64Nb0.28Ta0.08,76
Sc0.75Th0.25Rh4B4,76
Y0.12Er0.88Rh4B4,76
Ti0.64Ta0.075Nb0.285,76
Ho0.7Lu0.3Ni2B2C1,76
Ho0.85Lu0.15Ni2B2C1,76
Ca1Fe0.85Ni0.15As1F1,76
Lu0.9Tm0.1Ru1B2,76
Ba0.37K0.63Bi1O2.952,76
Mo0.333Re0.043P0.161B0.462,76
Pr1Fe1As0.2P0.8F0.1O0.9,76
La0.75Rh4P12,76
Nd1.85Ce0.15Cu0.98Zn0.02O4,76
K0.8Bi1.2O3,76
K0.75Ca0.25Bi1O3,76
Ba1Pb0.85Bi0.15O3,76
Nb3Pt1,76
Bi0.35Pb0.65,76
Ce0.16La0.84,76
Ir0.29Mo0.41Nb0.3,76
Mo0.6Ru0.4,76
Nb0.38Zr0.62,76
V3Si0.6Ge0.4,76
C1Mo0.8Ta0.2,76
Y1Ni1.94Ru0.06B2C1,76
Tm1Ni1.97Co0.06B2C1,76
Nb0.8Ga0.14Ni0.06,76
Y1Ni1.8Mn0.2B2C1,76
Ca1Rh1.2Sn4.5,76
Pb0.5Yb0.5Mo6Se8,76
Bi1,75.8
Ho1Ni2B2C1,75.8
V3Ga0.4Si0.6,75.8
Pu1Rh1Ga5,75.8
Tc0.875Ti0.125,75.75
Ca3Rh4Sn13,75.6
Sr1Fe1.85Pd0.15As2,75.6
Er1Rh4B4,75.5
Er1Rh4B4,75.455
Er1Rh4B4,75.3
Ba1Fe1.918Co0.044Cu0.038As2,75.2
Zr0.96V0.04B2,75.2
Mo5P1B2,75.2
Nb5Re24,75.1
Ga41Mo6V2,75.1
Fe1Se0.87S0.13,75.1
Ba1Fe1.82Ni0.18As2,75.1
Fe1Se1,75.1
Fe1Se0.88,75
Bi0.525Pb0.32Sn0.155,75
Y5Os4Ge10,75
Bi1,75
Ho1Ni2B2C1,75
Ta0.6Mo0.4C1,75
Sr1Fe1.85Ni0.15As2,75
Y0.9Gd0.1Rh4B4,75
Er1Rh4B4,75
V1N1,75
Sr1Fe1.84Ni0.16As2,75
La1Bi1S2F0.5O0.5,75
Re0.77Mo0.23,75
Na1Fe1As1,75
Bi0.3Pb0.7,75
Y0.8Pr0.2Ni2B2C1,75
Lu1Rh4B4,75
Eu1Bi1S2F1,75
La1.82Ba0.18Cu0.99Ga0.01O4,75
Pu1Rh1Ga5,75
Hf1V2,75
Be22Mo0.3Re0.7,75
Be22Mo0.4Re0.6,75
Be0.8Os0.2,75
N1Nb2,75
Nb5Sb4,75
Nb0.35Ti0.6Zr0.05,75
V0.7Zr0.3,75
La3Se4,75
V3Si0.5Ga0.5,75
La3Sc4,75
Nb0.185Ti0.719Ta0.095,75
Nb0.8Ga0.14Cr0.06,75
Yb1.2Mo6S8,75
Yb1Rh1.4Sn4.6,75
V0.75Ge0.225Al0.025,75
Nb0.25Zr0.75,75
Ge1V3,75
Nb3Si1,75
Yb3Rh4Sn13,75
Fe1Te0.8S0.2,75
Cu0.01Fe0.99Se0.85,75
Ba1Fe2As1.6P0.4,75
Bi2Te1,75
Fe0.995V0.005Se1,75
Fe1Te0.8Se0.2,75
Fe0.049Ga0.197V0.754,75
Mo0.02Nb0.98,75
Mg1C1Ni2.9Fe0.1,75
V0.705Si0.213Ge0.082,75
La1Fe0.975Co0.025As1O1,75
La1.885Sr0.115Cu0.99Zn0.01O4,74.9
Pd0.04Rh0.29Zr0.67,74.7
Ho1Ni2B2C1,74.7
Ti0.64Nb0.26Ta0.1,74.6
Zr0.196V0.703Nb0.100,74.6
Nb5Ir1.4Pt1.6O1,74.6
Nb0.957Ta0.043,74.5
Er1Rh4B4,74.5
Ba1Fe2As0.72P1.28,74.4
V2Zr1,74.3
Sc5Rh4Si10,74.3
La1Pt4Ge12,74.3
Ho1Ni2B2C1,74.3
Ba1Fe1.772Co0.228As2,74.3
C60K3,74.1
Sm1.295Gd0.555Ce0.15Cu1O4,74.1
La1.85Ce0.15Cu1O4,74
Pu1Rh1Ga5,74
Y1Ru4P12,74
Sc5Ir4Si10,74
Bi0.5Pb0.25Sn0.25,74
Fe0.03Nb0.25Ti0.72,74
Ga1,74
N5Nb4,74
N1V1,74
Nb0.5Ti0.2V0.3,74
V2Zr1,74
Nb0.14Re0.86,74
Bi0.5Pb0.25Sn0.26,74
Bi0.5Pb0.31Sn0.19,74
C0.1N0.9Nb1,74
C1Mo0.75Ta0.25,74
Cu3.2Mo6S8,74
Ho1Ni2B2C1,74
Y1Ni1.86Co0.14B2C1,74
N0.93H2.79Na1Rb2C60,74
C60K3,74
La0.9Nd0.1Pt2.1B2.4C1.2,74
Na2Cs1C60,74
Mo0.82Re0.18,74
La2.995Gd0.005In1,74
Mo0.6Pt0.1Re0.3,74
Nb0.969O0.031,74
Sc1C0.75Ge0.02,74
Ta0.8Mo0.2C1,74
Li0.33V2O5,74
Er1Ni1.94Fe0.06B2C1,74
Fe1.01Se1,74
Fe1Se1,74
Al0.1Fe0.9Se0.85,74
Al0.25Fe0.75Se0.85,74
Fe1.14Te0.91S0.09,73.9
Fe0.95Se0.25Te0.75,73.9
Fe1Se1,73.9
Nb0.18Re0.82,73.8
Re0.2Mo0.8,73.8
Fe0.99V0.01Se1,73.8
Fe0.98V0.02Se1,73.7
Ho1Ni2B2C1,73.7
Fe1Se0.5Te0.5,73.62
Fe1Te0.8S0.2,73.6
Sc5Ir4Si10,73.6
Ga1,73.6
H15Th4,73.6
Yb1Mo6S8,73.5
Sr0.5Eu0.5Fe1.76Co0.24As2,73.5
Fe1.02Te0.5Se0.1S0.4,73.5
Lu0.5Ho0.5Rh4B4,73.5
Ba1Fe1.64Ru0.36As2,73.5
Hf1V2H0.4,73.5
Nb0.938Ta0.062,73.5
Na1Fe1Ni0.004As1,73.4
Nd1.85Ce0.15Cu0.994Ni0.006O4,73.4
Na2Rb0.5Cs0.5C60,73.4
Ba0.19K0.81Bi1O3,73.4
Pu0.9U0.1Co1Ga5,73.3
C60Ca5,73.3
Ba8Si46,73.3
Si1,73.2
As1Pb1,73.2
B5Hf0.2Mo1.8,73.2
Bi0.45Pb0.55,73.1
Bi0.5Pb0.5,73.1
Mo0.42Re0.58,73.1
Mo0.42Re0.58,73
V2.781Co0.219Ga1,73
Nb2.85V0.15Au1,73
Nb0.160Ti0.807Ta0.033,73
Th1Ni2B2C1,73
Mg1C1.5Ni3,73
Na2Rb0.5Cs0.5C60,73
Ho1Ni2B2C1,73
Pb1Mo6S7Se1,73
Nb0.9Ta0.1,73
C60Ca5,73
Re0.71V0.29,73
Zr1Ru1P0.95B0.05,73
Bi4Te3,73
Sc5Ir4Si10,73
Sr1Pt3P1,73
Bi1,73
Fe1.07Te0.88S0.12,73
Ir0.3Rh0.64Se2,73
Ir1Mo3,73
Sn1Ta3,73
H3.63Th1,73
La1.35Nd0.4Sr0.25Cu1O4,73
Zr0.96V0.04B2,73
Ti0.64Nb0.24Ta0.12,73
N1V1,73
Hf0.5Nb0.5,73
Y1Ba2Cu3O6.36,73
La1.85Sr0.15Cu0.98Ga0.02O4,73
La1.84Ba0.16Cu0.99Ga0.01O4,73
La1.48Nd0.4Sr0.12Cu1O4,73
Li1.16Ti1.84O4,73
Y0.5Th0.5Ni1C2,73
Ag1Mo4S5,73
Al0.01Nb0.97O0.02,72.9
B5Mo1.7Nb0.3,72.9
Be22Mo0.6Re0.4,72.9
Bi0.26Pb0.74,72.9
C1.3La1,72.85
Nb3Si0.5Sn0.5,72.7
Re0.73W0.27,72.6
Tc0.7V0.3,72.5
V0.6Zr0.4,72.5
Nb2.1Mo0.9Al1,72.5
Nb3Si0.5Sn0.5,72.5
Nb0.247Zr0.753,72.5
Na2Cs0.88C60,72.5
Mg1B1.4Be0.6,72.5
Sc5Ir4Si10,72.3
Tm1Th3.4Ru0.6B4,72.2
Er0.85Tb0.15Ni2B2C1,72.2
Nb0.25Zr0.75,72.2
Bi1,72.2
Fe1Se0.94,72.2
Mo7Re13B1,72.1
C1,72
Ca3Rh4Sn13,72
Ba1Fe1.738Rh0.262As2,72
Fe1Se0.828Sb0.092,72
Sc5Ir4Si10,72
Li2Pd3B1,72
La1Pt4Ge12,72
Ta0.685Ti0.315,72
Lu1Rh4B4,72
Mo0.815Re0.185,72
Sc5Rh4Si10,72
Fe1Se0.85,72
B1Nb1,72
La3S4,72
Y2I1.5Cl0.5C2,72
Mo0.02Nb0.98,72
Er0.98Gd0.02Rh4B4,72
Er0.79Ho0.21Rh4B4,72
Pr0.1La0.9Pt4Ge12,72
Fe1Se0.98,72
Ba2Ti2Fe1.92Cr0.08As4O1,72
La1.88Ba0.12Cu0.99Ga0.01O4,72
La1.83Sr0.17Cu0.96Ni0.04O4,72
La1.69Nd0.2Ba0.11Cu1O4,72
Ba7.61Si46,72
Bi0.5Cd0.125Pb0.25Sn0.125,72
C3Er0.2Th1.8,71.9
C3Er0.4Th1.6,71.9
Nb3Sn0.73Ge0.27,71.8
Nb0.748Sn0.070Al0.068Ge0.114,71.8
Bi0.5Cd0.25Pb0.25Sn0.12,71.8
Y1Ni1.9Fe0.1B2C1,71.79
Er1Ni1.98Co0.04B2C1,71.6
Si1,71.6
Ca3Rh4Sn13,71.6
Ga1,71.5
Ho0.9Dy0.1Ni2B2C1,71.5
Mg1C1Ni3,71.5
Ba7.61Si46,71.5
La2.98Ce0.02In1,71.25
Th1.8Er0.2C3,71.2
Th1.6Er0.4C3,71.2
Ga1Nb3,71.1
Sc1,71.05
Fe1Te0.93Se0.07,71
Zr0.95V0.05B2,71
Fe1Se1,71
La1Pt4Ge12,71
Fe0.95Co0.05Se0.3Te0.7,71
Al2C1Mo3,71
Bi2Se3,71
Nb1Si1As1,71
La1Fe0.918Zn0.082As1F0.28O0.68,71
Eu1Bi1S2F1,71
Eu1Sr2Bi2S4F4,71
Fe1Se0.84S0.16,71
Li2Pd3B1,71
Ti0.64Nb0.18Ta0.18,71
Ba1Fe1.55Ru0.45As2,71
Nb3Pt1,71
Ir1Mo3,71
Ba2Ti2Fe1.92Cr0.08As4O1,71
Bi0.2Pb0.8,71
Nb0.87Ta0.13,71
Ho0.9Dy0.1Ni2B2C1,71
V0.702Si0.212Ga0.086,71
Mo0.816Zr0.034B2,71
B2Mg1,71
Pr1Pt4Ge12,71
La3S4,71
Fe1Se0.779Te0.041,71
Mo0.845Zr0.035B2,71
Gd0.71Pr1.14Ce0.15Cu1O4,70.9
La1.75Sr0.25Cu0.98Ni0.02O4,70.8
C3Er0.6Th1.4,70.8
C0.55W0.45,70.8
Re0.5W0.5,70.6
V3Si0.25Ga0.75,70.5
V2.49Mn0.42Si1,70.5
Y0.7Tb0.3Ni2B2C1,70.5
Nb0.8Ga0.13Ni0.07,70.5
Nb0.740Ga0.173Co0.087,70.5
Y0.8Gd0.2Ni2B2C1,70.4
Ba8Si46,70.4
Nb0.949O0.051,70.3
Y0.8Sc0.2Ru1B2,70.3
Th1.4Er0.6C3,70.25
La3S4,70.2
B2.5Mo1,70.1
Ba8Si46,70
Ga1V3H0.37,70
Sr1Fe1.88Ni0.12As2,70
Ba1Fe1.73Co0.27As2,70
Mo7Re13C1,70
Zr1Ru1P0.9B0.1,70
La2Pt3Ge5,70
Au0.15Sb0.85,70
Ge1Sb2Te4,70
Mo1Te2,70
Fe1Se0.82S0.18,70
Ir0.76Rh0.18Se2,70
Ca3Ir4Sn13,70
Nb0.85Ta0.15,70
La0.69Rh4P12,70
Pr0.2La0.8Pt4Ge12,70
La3S4,70
Er0.97Gd0.03Rh4B4,70
Er0.73Ho0.27Rh4B4,70
La0.8Th0.2Pt4Ge12,70
Bi0.625Pb0.375,70
B2Nb0.6,70
Ho1Ni2B2C1,70
Tc1,70
Bi0.575Pb0.425,70
Pr0.3La0.7Pt4Ge12,70
La1.737Sr0.263Cu1O4,70
Eu1.85Ce0.15Cu1O4,70
Bi2Sr2Cu1O6,70
La1.875Ba0.075Sr0.05Cu1O4,70
Y0.92Ca0.08Sr2Cu2.5Fe0.5O6.92,70
La1.8Sr0.2Cu0.65Ni0.35O4,70
Bi2Sr1.3Sm0.7Cu1O6.405,70
C60Sm3,70
Cu2Cr0.25Sr2Y1.3Ce0.7O8.87,70
Nd1.85Ce0.15Cu0.993Ni0.007O4,70
Nd1.85Ce0.15Cu0.95Zn0.05O4,70
Ca0.1Ba1.65La1.25Cu3O6.98,70
Bi2Sr2Cu1O6.36,70
Nd1.48Tb0.38Ce0.15Cu1O4,70
Ca14Cu24O40.93,70
La1.85Sr0.15Cu0.978Zn0.022O4,70
La1.48Nd0.4Sr0.12Cu1O4,70
Na0.33V2O5,70
Fe0.5Ba2Sm1Cu2.5O7.54,70
Ca1.9Na0.1Cu1Cl2O2,70
Li2Pd3B1,70
B5Mo1.9Y0.1,70
C0.64Mo1,70
Co0.6Rh0.4Zr2,70
Ge1Ta3,70
In1Nb3,70
Ir0.25Zr0.75,70
Mo0.05Nb0.95,70
Nb0.2Zr0.8,69.7
Tc1,69.5
C1Nb1,69.5
Nb0.148V0.108Ti0.745,69.4
Cu2.6Mo6S8,69.4
Ho0.9Dy0.1Ni2B2C1,69.3
Ho1Ni2B2C1,69.3
N1H3Na1K2C60,69.3
Na2Rb0.5Cs0.5C60,69.2
Mg1C1Ni3,69.2
Ba8Si46,69.1
C60Sm3,69.1
Mg1C1Ni3,69.1
Ho0.9Dy0.1Ni2B2C1,69
Mg1C1Ni2.8Fe0.2,69
Ba7.76Si46,69
Ba8Si46,69
La1Rh4Si2B1,69
Mo0.98Nb0.02Ga4,69
Mo0.96Nb0.04Ga4,69
Zr1Os1As1,69
V2Zr1,69
Ge2Zr1,69
Ga4Mo1,69
La1.94Sr0.06Cu1O4,69
Fe1Se0.72,69
Fe1Se0.88,69
Fe1.01Se1,69
Fe1Se0.98,69
Ba1Fe1.79Zn0.1Co0.11As2,69
Au0.1Sb0.9,68.9
Ba1Fe1.84Co0.13Mn0.03As2,68.9
Sc5Ir4Si10,68.8
Li0.15Sr2Cu1Br2O2,68.8
La1Fe1P1F0.05O0.95,68.8
Ba0.779Na0.221Fe2As2,68.8
Zr1Os1As1,68.75
Ba0.83K0.17Fe2As2,68.7
La1Pt4Ge12,68.6
Li0.15Sr2Cu1Br2O2,68.6
Ba1Fe1.746Co0.254As2,68.5
Li2Pd3B1,68.5
Fe1Se0.4Te0.6,68.5
Yb0.8Pr0.2Ba2Cu3O6.88,68.5
La1Ba1.5Ca0.5Cu3O6.96,68.4
La1Ba1.25Ca0.75Cu3O6.958,68.4
Er0.85Hf0.15Ba2Cu3O6.813,68.35
Tm1Ba2Cu4O8,68.3
Y1Ba2Cu2.88Ga0.12O7,68.3
Bi4Sr3Ca1.6Y1.4Cu4O16,68.3
Bi2Sr1.8Ca1.2Cu2O8,68.3
Y1Ba1.8Sr0.2Cu4O8,68.2
Tm1Ba2Cu3O6.8,68.2
Y1Ba2Cu4O8,68.2
La1.25Ba1.35Ca0.4Cu3O7.16,68.2
Y1Ba2Cu4O8,68.15
Y1Ba1.972Ca0.028Cu4O8,68.1
Y1Ba2Cu4O8,68
Y0.75Ca0.1Pr0.15Ba2Cu3O6.95,68
Tm1Ba2Cu4O8,68
Y1Ba2Cu2.97Zn0.03O7,68
Bi1Pb1Sr2Y0.4Ca0.6Cu2O8,68
Dy1Ba1Sr1Cu3O6.89,68
Er0.85Ca0.15Ba2Cu3O6.93,68
Bi2Sr1.8Ca1.2Cu2O8,68
Y1Ba2Cu3O6.74,68
Gd0.8Hf0.2Ba2Cu3O6.79,68
Y0.975Ca0.025Ba2Cu4O8,68
Y0.7Ca0.3Ba2Cu4O8,68
Y1Ba1.46Sr0.54Cu4O8,68
Eu0.9Pr0.1Ba2Cu3O6.95,68
Y1Ba2Cu2.8Ni0.2O7,68
Y0.8Pr0.2Ba1Sr1Cu3O6.9,68
Y0.99Ca0.01Ba2Cu4O8,68
Sm1Ba2Cu3O6.95,68
Bi4Sr3Ca1.2Y1.8Cu4O16,68
Y1Ba2Cu3O6.65,68
Er0.99Ca0.01Ba2Cu4O8,68
Y0.9Ca0.1Ba2Cu3O6.5,68
Y1Ba2Cu2.82Ga0.18O7,68
La1.25Ca0.45Ba1.3Cu3O7.135,67.9
La1.25Ca0.5Ba1.25Cu3O7.137,67.9
Ho1Ba2Cu4O8,67.8
Y0.85Pr0.15Ba2Cu3O6.98,67.7
Tm0.99Ca0.01Ba2Cu4O8,67.6
Hg0.92Ba2.05Cu1.03O4.079,67.6
Y1Ba2Cu4O7.986,67.6
Y1Ba2Cu2.97Zn0.03O6.97,67.6
Y1Ba2Cu3O6.8,67.6
Y1Ba1.6Sr0.4Cu4O7.9,67.6
Y1Ba1.2Sr0.8Cu4O7.9,67.55
Y0.9Ca0.1Ba1.9La0.1Cu4O7.8,67.5
Bi1.6Pb0.4Sr1.6Ca1Nd0.4Cu2O8.17,67.5
Bi2Sr2Ca0.7Y0.3Cu2I1O8,67.5
Pb2Sr2Y0.61Ca0.39Cu3O8,67.5
Y1Ba1Sr1Cu3O6.94,67.5
Ho1Ba1Sr1Cu3O6.94,67.4
Y1Ba2Cu4O8,67.4
Y1Ba2Cu2.88Fe0.12O7,67.4
Y1Ba2Cu4O8,67.3
La2.5Ca1Ba2.5Cu6O14.146,67.3
La2.4Ca1.2Ba2.4Cu6O14.082,67.2
Y0.8Ca0.2Ba2Cu3O6.86,67.2
Tm1Ba2Cu4O8,67.1
La2.1Gd0.7Ca1.4Ba2.8Cu0.7O16.471,67.1
Ba1.6Sr0.4Yb0.65Ca0.35Cu3O6.52,67.1
Y0.85Ca0.15Ba2Cu3O6.9,67.1
La2.1Y0.7Ca1.4Ba2.8Cu7O16.433,67.1
Ho1Ba2Cu4O8,67.04
Tl1Sr1.5Gd0.5Ca1Cu2O7,67.04
La1Er1Ba2Ca2Cu6O14.122,67
La1.5Gd0.5Ba2Ca1Cu5O11.892,67
La1Gd1Ba2Ca2Cu6O14.1,67
Ho1Ba2Cu4O8,67
Eu1Ba2Cu2.95Ga0.05O6.78,67
Y1Ba2Cu2.94Ni0.06O7,67
Lu0.9Pr0.1Ba1.7Sr0.3Cu3O6.95,67
La1.1Ba1.5Ca0.4Cu3O7.06,67
Y1Ba1.85Cu2.85Co0.15O7.04,67
Y1Ba2Cu4O8,67
La1.5Nd0.5Ca1Ba2Cu5O11.583,67
Y0.1La0.9Ba2Cu3O7.05,67
Ba2Ca3Cu4F1.6O8.4,67
Y0.95Sc0.05Ba2Cu4O8,67
Yb1Ba2Cu4O8,67
Ca0.4Ba1.35La1.25Cu3O7.15,67
Er0.8Hf0.2Ba2Cu3O6.772,67
Ca0.4Ba1.35La1.25Cu3O7.14,66.9
Bi2Sr1.7Ca1.3Cu2O8.211,66.9
Tm1Ba2Cu4O8,66.9
Tm1Ba2Cu4O8,66.6
Nd1Ba2Cu3O6.86,66.5
Y1Ba2Cu4O8,66.5
Ho1Ba2Cu4O8,66.5
Y1Ba1.4Sr0.6Cu4O7.8,66.5
Bi2Sr2Ca1Cu2O8.22,66.5
Sm1.1Ba1.9Cu3O7.05,66.4
Bi2Sr1.5Ca1.5Cu2O8.19,66.3
Pb2Sr2Ho0.5Ca0.5Cu3O8,66.2
Nd1Ba1.6Sr0.4Cu3O6.721,66.19
Bi1.7Pb0.3Sr2Ca0.96Y0.04Cu2O8.06,66.1
Nd1Ba1.8La0.2O6.81,66.1
Nd0.4Ca0.6Ba0.6La0.4Cu3O6.71,66
Y0.9Pr0.1Ba2Cu3O6.95,66
Y1Ba2Cu3O6.8,66
Y1Ba2Cu2.85Ga0.15O7,66
Pb2Sr2Y0.5Ca0.5Cu3O8,66
Y0.8Ca0.1Pr0.1Ba2Cu3O7.01,66
Y1Ba2Cu3.99Ni0.01O8,66
Tl0.5Pb0.5Sr2Ca1Cu2O7,66
Y0.87Pr0.13Ba2Cu3O7,66
Er1Ba2Cu4O8,66
Y1Ba2Cu4O7.9,66
Y1Ba2Cu2.94Co0.06O7,66
Y1Ba2Cu2.97Zn0.03O7,66
Er1Ba2Cu3O6.78,66
Gd1Ba2Cu3H1.32O6.89,66
Hg1Ba2Cu1O4.055,66
Y0.8Ca0.2Ba2Cu3O6.89,66
Bi2.2Sr1.72La0.08Ca1Cu2O8,66
Y1Ba2Cu3O6.876,66
Y0.84Sr1.16Ba1Cu2.78S0.22O7,66
Y1Ba2Cu4O8,65.9
Y2La0.4Ba3.6Cu6O13.91,65.9
Y1Ba1.8La0.2Cu3O6.95,65.8
Y1Ba1.9Sr0.1Cu4O7.9,65.7
Y1Ba1.8Sr0.2Cu4O7.9,65.7
Er1Ba2Cu4O8,65.64
Y2Ba4Cu7O14.85,65.6
Bi2Sr2Ca1Cu2O8.198,65.5
Gd1Ba2Cu3O7,65.4
Er1Ba1Sr1Cu3O6.94,65.36
Y1Ba2Cu3O6.8,65.3
La2.375Ca1.25Ba2.375Cu6O14.062,65.3
Y0.7Ca0.3Ba2Cu3O6.78,65.3
Er1Ba2Cu4O8,65.2
Y0.99Ca0.01Ba2Cu4O8,65
Sr1.5Ba0.5Y1Cu2.8Ti0.2O7.2,65
Bi2Sr2Ca1Cu2O8.216,65
Lu0.8Ca0.2Ba2Cu3O6.68,65
Pb2Sr2Y0.5Ca0.5Cu3F0.811O7.346,65
Ba1.6Sr0.4Yb0.65Ca0.35Cu3O6.53,65
Y0.9Tb0.1Ba2Cu4O8,65
Y1Ba0.5Sr1.5Cu3O6.98,65
Y1Ba2Cu4O8,65
Y0.75Eu0.25Ba2Cu4O8,65
Tl1Sr1.5Er0.5Ca1Cu2O7,65
La1.5Er0.5Ba2Ca1Cu5O11.907,65
La1.7Nd0.3Ca0.6Ba2Cu4.6O11.892,65
La1.5Nd0.5Ca1Ba2Cu5O11.872,65
Y0.85Ca0.15Ba2Cu3O6.71,65
Tl1Ba2Ca0.7Gd0.3Cu2O7,65
Hg1Ba2Cu1O4.17,65
Y0.8Ca0.2Ba1.8La0.2Cu3O6.96,65
Y0.7Ca0.3Ba1.7La0.3Cu3O6.96,65
Y0.6Ca0.4Ba1.6La0.4Cu3O6.96,65
Hg1Ba2Cu1O4.31,65
Y1Ba2Cu3O6.8,65
Sm1Ba2Cu2.96Fe0.04O6.81,65
Dy1Ba2Cu2.94Fe0.06O6.88,65
La1Ba1.5Ca0.5Cu3O7.011,64.9
Hg1Ba2Cu1F1O4,64.9
Y1Ba1.8La0.2Cu3O6.96,64.8
Y1Ba2Cu3.996Ni0.004O8,64.8
Y1Ba2Cu3O6.73,64.8
Bi2Sr2Ca1Cu1.98Ni0.02O8,64.75
Y0.9Ca0.1Ba2Cu3O6.91,64.7
La1.5Nd0.5Ba2Ca1Cu5O7.123,64.7
Tm1Ba2Cu3O6.71,64.6
Bi0.2Pb0.4S0.4Sr2Ca0.7Nd0.3Cu2O6.99,64.6
Y1Sr2Mo0.25Cu2.75O7.54,64.6
Tm0.8Pr0.2Ba2Cu3O6.95,64.6
Y1Ba2Cu4O8,64.6
Y0.74Ca0.16Sr0.6Ba1.5Cu2.78S0.22O7,64.6
Y1Ba2Cu3O6.76,64.5
La1.25Ca0.4Ba1.35Cu3O7.141,64.5
Er1Ba2Cu4O8,64.4
Y1Ba2Cu3.98Ga0.02O8,64.4
Gd0.5Ca0.35Mo0.15Ba2Cu3O6.586,64.3
Y1Ba2Cu4O8,64.3
Y0.7Ca0.15Pr0.15Ba2Cu3O6.95,64.2
Bi2Sr1.6Ca1.4Cu2O8.16,64.2
Bi2Sr2Ca1Cu2O8.22,64.1
Y1Ba2Cu4O7.8,64.1
Y1Ba2Cu3.96Ga0.04O8,64
Er0.88Ca0.12Ba2Cu2.82Co0.18O6.93,64
Er0.88Ca0.12Ba2Cu2.28Co0.18O6.93,64
Y1Ba2Cu4O8,64
Hg0.5Fe0.5Sr2Y0.4Ca0.6Cu2O6.67,64
Nd1.08Ba1.92Cu3O6.17,64
La3Ca0.9Cd0.1Ba3Cu7O16.611,64
Ho1Ba2Cu4O8,64
Dy0.85Pr0.15Ba2Cu3O6.9,64
Ho0.97Ca0.03Ba2Cu4O8,64
Sm1.15Ba1.85Cu3O6.95,64
Y1Ba2Cu2.88Fe0.12O7,64
Y1Ba1.8La0.2Cu3O7.05,64
Er0.7Ca0.15Hf0.15Ba2Cu3O6.821,64
Y1Ba2Cu2.85Ni0.15O6.97,64
Dy1Ba2Cu4O8,64
Y1Ba2Cu2.88Ni0.18O7,64
Y0.7Ca0.1Pr0.2Ba2Cu3O6.95,64
Y0.65Ca0.15Pr0.2Ba2Cu3O6.95,64
Y1Ba2Cu3O6.8,64
Dy1Ba1Sr1Cu3O6.9,64
Eu1Ba2Cu3O6.76,63.9
Ho1Ba2Cu4O8,63.9
Y1Ba2Cu2.97Zn0.03O6.85,63.8
Pb0.8Sr1Ba1.2Y0.7Ca0.3Cu3O8.35,63.8
Bi2Sr1.8Li0.2Ca1Cu2O8,63.8
Bi2Sr2Ca0.9Y0.1Cu2O8,63.75
Y1Ba2Cu4Li0.016O8,63.7
Y1Ba2Cu3O6.7,63.7
Y0.95Pr0.05Ba2Cu4O8,63.7
Tl0.67Cr0.33Sr4Cu2C1O10,63.6
Y1Ba2Cu2.94Ti0.06O6.91,63.6
Al1Sr2Ca2Cu3O9.9,63.6
Nd0.8Ca0.2Ba1Sr1Cu3O6.78,63.5
Y1Ba1Sr1Cu2.975Sn0.025O6.92,63.5
Ge0.5Cu3Sr2Ca1.8Y0.2O9.3,63.5
Ge0.4Cu3Sr2Ca1.7Y0.3O9.3,63.5
Er0.76Ca0.24Ba1.6Sr0.4Cu2.76Co0.24O6.88,63.5
Cu2W0.2Sr2Y1O7.3,63.5
Ba1.6Sr0.4Yb0.65Ca0.35Cu3O6.63,63.5
Sr2Ca1Cu2O5.5,63.5
Y1Ba2Cu3O6.8,63.5
Y1Ba2Cu3O6.85,63.32
La2.5Y0.5Ca1Ba3Cu6.86Fe0.14O16.578,63.31
Y0.5Eu0.5Ba2Cu4O8,63.3
La2.5Y0.5Ca1Ba3Cu6.86Fe0.14O16.578,63.3
Ho1Ba2Cu2.94O6.94,63.1
Y0.5Eu0.5Ba2Cu4O8,63.1
Lu0.85Pr0.15Ba1.7Sr0.3Cu3O6.91,63
Y1Ba2Cu2.97Zn0.03O7,63
La1.1Ba1.5Ca0.4Cu3O7.11,63
Y1Ba2Cu4O8,63
Hg0.8Nd0.2Ba2Cu1O4.3,63
Y1Ba1.7La0.3Cu3O7.02,63
Bi2Sr2Ca1Cu1.97Ni0.03O8,63
La1.7Nd0.3Ba2Ca0.6Cu4.6O7.135,63
Ba2Ca3Cu4F1.6O8.4,63
Y1Ba2Cu2.79Ga0.21O7,63
Y0.9Ca0.1Ba2Cu2.75Co0.25O7.03,63
Ca0.3Ba1.45La1.25Cu3O7.172,63
Ho0.99Ca0.01Ba2Cu4O8,63
Nd1.15Ba1.85Cu3O6.96,63
Y1Ba1.8Sr0.2Cu4O8,63
Y1Ba2Cu3H1.15O6.91,63
Y0.8Ca0.2Ba2Cu3O6.7,63
Bi1.7Pb0.3Sr2Ca0.9Nd0.1Cu2O8.27,63
Y1Ba2Cu2.94Fe0.06O6.954,63
Y1Ba2Cu3O6.75,63
Y1Ba1.6Sr0.4Cu4O8,63
Pb2Sr2Dy1Cu3O8,63
Bi2Sr1.1Ca1.9Cu2O8.22,63
Bi2Sr1.2Ca1.8Cu2O8.199,63
Bi2Sr1.3Ca1.7Cu2O8.19,63
Er0.8Ca0.2Ba2Cu3O6.91,62.9
Y1Ba1.8Sr0.2Cu4O8,62.9
Gd1Ba1Sr1Cu3O6.937,62.8
Y0.75Ca0.05Pr0.2Ba2Cu3O6.95,62.7
Y1Ba2Cu2.95Fe0.05O6.84,62.7
Bi2Sr1Ca2Cu2O8.229,62.7
Er0.8Pr0.2Ba2Cu3O7,62.7
Pb2Sr2Ho0.05Ca0.5Cu2.994Al0.006O8,62.6
La1Ba1Ca1Cu3O6.98,62.6
Y1Ba1Sr1Cu2.975Sn0.025O6.91,62.6
Y1Ba1.8La0.2Cu3O7,62.5
Y1Ba2Cu3O6.73,62.5
Y0.75Pr0.15Ca0.1Ba2Cu4O8,62.5
Ho1Ba2Cu4O8,62.5
Y1Ba2Cu2.9Fe0.1O6.92,62.4
Bi2Sr2Ca0.9Y0.1Cu2O8,62.3
Ho1Ba2Cu4O8,62.25
Bi1Pb1Sr2Y0.65Ca0.35Cu2O8,62.2
Y1Ba2Cu2.85Fe0.15O7.02,62.1
Bi2Sr2Ca1Cu2O8.28,62.1
Bi2Sr2Ca0.6Y0.4Cu2O8.36,62.1
Dy1Ba2Cu4O8,62
Ca1Ba1La1Cu3O6.85,62
La1Ba2Cu3O6.89,62
Al1Sr2Ca2Cu3O10.1,62
Pb2Sr2Y0.53Ca0.47Cu3O8,62
Nd1.1Ba1.9Cu3O6.935,62
La2Ca2Ba2Cu3O13.712,62
Ho1Ba2Cu4O8,62
Tm1.8Pr0.2Ba4Cu7O14.725,62
Ba1.6Sr0.4Yb0.85Ca0.15Cu3O6.83,62
Ba1.6Sr0.4Yb0.6Ca0.4Cu3O6.61,62
Tl0.5Pb0.5Sr4Cu2C0.9N0.1O7,62
Pb0.5Tl0.5Sr4Cu2C0.9N0.1O10,62
Tl1Sr1.7Cr0.3Cu1O5,62
Cu3P0.5Sr2Ca1.8Y0.2O9.45,62
La1Ba1.5Ca0.5Cu3O6.85,62
Ca0.3La0.55Ba1.45Cu3O7.16,62
Gd0.55Ca0.35Hf0.15Ba2Cu3O7.06,62
La1.6Er0.4Ba2Ca0.8Cu4.8O11.424,62
La1.55Er0.45Ba2Ca0.9Cu4.9O11.664,62
La1.6Gd0.4Ba2Ca0.8Cu4.8O11.401,62
Y1Ba1.76Sr0.24Cu4O8,62
La1.7Yb0.4Ba1.7Ca0.8Cu5O11.795,62
La1.5Yb0.5Ba1.5Ca1Cu5O11.785,62
Ca0.4La1.25Ba1.35Cu3O7.135,62
Yb0.8Pr0.2Ba1.7Sr0.3Cu3O6.92,62
Y1Ba2Cu2.97Zn0.03O7,62
Hg1Tl1Ba2Ca2Cu3O10,61.9
La1Ba1.5Ca0.5Cu3O7.079,61.7
La1.1Ba1.5Ca0.4Cu3O7.123,61.5
Bi2Sr2Ca1Cu2O8,61.5
Er1Ba2Cu2.94Zn0.03Fe0.03O6.94,61.5
Y1Ba2Cu3O6.63,61.4
La1.5Nd0.5Ca1Ba2Cu4.95Mo0.05O11.345,61.4
Fe0.5Ba2Ho1Cu2.5O7.49,61.4
Hg0.4Pr1.1Sr2Ca0.5Cu2O7.9,61.38
La3Ca0.8Cd0.2Ba3Cu7O16.536,61.34
Ba2Ca2Cu3F2O6,61.3
Y0.8Pr0.2Ba2Cu3O7,61.3
Y1Ba2Cu3O6.765,61.25
Bi2Sr2Ca0.9Pr0.1Cu2O8.234,61.2
Y1Ba1.4Sr0.6Cu4O8,61.2
Bi1.7Pb0.3Sr2Ca1Cu2O0.23,61.1
Y1Ba2Cu2.82Fe0.18O6.95,61.1
Y1Ba1Sr1Cu3O6.88,61.1
Pb2Sr2Y1Cu3O8,61
Bi2Sr2Ca0.9Ce0.1Cu2O8,61
Y1Ba2Cu3O6.75,61
Y1Ba2Cu2.97Zn0.03O7,61
La1.2Ba1.5Ca0.3Cu3O7.06,61
La1.25Ba1.45Ca0.3Cu3O7.15,61
Y1Ba2Cu3O6.87,61
Sr2Nd0.4Ca0.6Cu2F1O5,61
Y0.74Ca0.16Sr1.1Ba1Cu2.78S0.22O7,61
Y0.925Ca0.075Ba2Cu3O6.68,61
Gd0.75Ca0.1Mo0.15Ba2Cu3O6.671,61
Y0.95Ca0.05Ba2Cu2.75Co0.25O7.06,61
Y1Ba2Cu2.9Al0.1O7,61
Y1.2Ba0.8Cu1O4,61
Y1Ba2Cu2.85Ni0.15O6.84,61
Gd1Ba2Cu2.91Fe0.09O6.94,61
Y1Ba2Cu4O8,61
Bi1Pb1Sr2Y0.3Ca0.7Cu2O8,61
Dy1Ba2Cu4O8,61
Pb0.8Sr0.8Ba1.2Y0.7Ca0.3Cu3.2O8.3,61
Y1Ba2Cu2.7Ga0.3O6.93,61
Bi2Sr2Ca0.8Y0.2Cu2I1O8,61
Pb2Sr2Y0.61Ca0.39Cu3O8,60.9
Y0.9Pr0.1Ba2Cu4O8,60.8
Hg0.9Mo0.1Ba2Cu1O4.2,60.8
Bi2Sr2Ca1Cu2O8.26,60.8
Bi2Sr2Ca1Cu2O8.28,60.7
Pb2Sr2Ho0.5Ca0.5Cu3O8,60.6
Y0.85Pr0.15Ba2Cu3O6.84,60.6
Tl1Sr2Ca1Cu2O6.68,60.6
B1Sr2Ca2Cu3O9,60.6
Eu2Ba4Cu7O14.671,60.5
Ba1.6Sr0.4Yb0.6Ca0.4Cu3O6.36,60.5
Y1Ba2Cu4O8,60.5
Y1Ba2Cu3H0.1O6.795,60.5
Eu1Ba1Sr0.8Ca0.2Cu3O6.95,60.5
Eu1Ba1Sr0.7Ca0.3Cu3O6.95,60.5
B1Sr2Ca2Cu3O9,60.5
Y0.868Ca0.132Ba2Cu3O6.928,60.4
Nd0.7Ca0.3Ba0.6La0.4Cu3O6.79,60.3
B1Sr2Ca2Cu3O9,60.1
La1Ba1.1Ca0.9Cu3O7.02,60
La1Ba1Ca1Cu3O6.99,60
Y0.9Pr0.1Ba2Cu4O8,60
Y0.25Eu0.75Ba2Cu4O8,60
Ca5.9Sr3.5Bi0.3Y0.1Pb0.1Al0.1Cu15.1O29,60
Y0.9Ca0.1Ba2Cu3O6.7,60
Y1Ba2Cu4O8,60
Er1Ba2Cu3O6.6,60
Lu0.8Pr0.2Ba1.7Sr0.3Cu3O6.93,60
Y1Ba2Cu3O6.77,60
Hg1Ba2Cu1O4.06,60
Y1Ba2Cu2.9Ni0.1O6.93,60
Y1Ba2Cu2.94Zn0.06O6.93,60
Hg1Ba2Cu0.97Zn0.03O4.063,60
Bi0.8Pb0.1S0.1Sr2Ca0.7Nd0.3Cu2O6.95,60
Bi0.5Pb0.25S0.25Sr2Ca0.7Nd0.3Cu2O6.97,60
Fe0.5Ba2Dy1Cu2.5O7.52,60
V0.5Sr2.4Ca3.6Cu5.5O13.55,60
V0.5Sr2.3Ca4.7Cu6.5O15.5,60
Nd1Ba1.4Sr0.6Cu3O6.94,60
Sr2Cu1O3.4,60
Bi0.2Pb0.4La1.2Sr1.3Cu1.9O5.78,60
Y0.95Ga0.05Ba2Cu4O8,60
Sr1.84Ba0.16Cu1O3.4,60
Lu0.8Nd0.2Ba2Cu4O8,60
Ca3Ir3.64Co0.36Sn13,60
Y1Ba2Cu2.9Fe0.1O6.9,60
Y0.8Pr0.2Ba2Cu3O6.96,60
Gd1Ba2Cu4O8,60
Y0.8Pr0.2Ba2Cu3O6.95,60
Y1Ba2Cu2.91Zn0.09O6.9,60
Y1Ba2Cu3.92Ga0.08O8,60