formula,Tc,type
Ce5.81In8.92Ir0.49Rh1.06,1.0,original
Ir1.5,1.0,original
Ir0.12Os2.19Rh0.12,1.0,original
Ir0.93Os0.52Rh0.24,1.0,original
C1.29H0.62K5.32,1.0,original
Se1.15Ta5.24,1.0,original
Sn0.78Te2.37,1.0,original
Pt1.63W1.37,1.0,original
Ga1.1Hf19.86,1.0,original
Ce5.81Cu0.76Si0.52,1.0,original
In3.95Sn0.56Th3.56,1.0,original
Al0.45Ge0.32Th7.22,1.0,original
Pt0.13Ru2.33,1.0,original
Ir0.27Ru2.03,1.0,original
Os0.84Rh0.97,1.0,original
Re0.24Ta4.17,1.0,original
Au6.78,1.0,original
Ce5.81Cu0.76Si0.55,1.0,original
Ce5.81In5.3,1.0,original
Ce5.81Cu0.76Si0.54,1.0,original
Ru2.42,1.0,original
As0.65,1.0,original
Cu3.28Th3.56,1.0,original
Fe0.51Ni0.81Zr7.55,1.0,original
La1.11Ru5.45Zn40.94,1.0,original
As0.65F0.3FeLa1.11,1.0,original
As0.65Fe1.02Sm6.8,1.0,original
Al29.34Ca29.65O17.78,1.0,original
Cd1.43Ce5.81In8.7Ir1.62,1.0,original
In5.3Rh1.7,1.0,original
As1.47Cd35.55,1.0,original
Cd9.44Mg0.54,1.0,original
Sb0.11,1.0,original
Rh0.24Ru2.09,1.0,original
Ir0.44Ru1.75,1.0,original
Ir0.63Ru1.44,1.0,original
Rh0.97Ru0.97Se1.15,1.0,original
Ir1.12Ru0.66,1.0,original
Ir1.49,1.0,original
Ge0.7Te2.37,1.0,original
Fe1.02Zr7.55,1.0,original
Ir1.54,1.0,original
Au7.05,1.0,original
Ru2.59,1.0,original
Ir1.54W0.18,1.0,original
Cd8.84Mg0.71,1.0,original
Hg7.24Mg9.74,1.0,original
Ir1.32Os0.13Ru0.13,1.0,original
Ir1.14Os0.44,1.0,original
Al3.13Ni4.67U3.54,1.0,original
Bi2.32La5.41Sb1.76,1.0,original
Bi3.16Pt2.29,1.0,original
Cr0.11Mo0.78,1.0,original
Bi4.85La5.41,1.0,original
Co4.41Ge0.65U3.54,1.0,original
C1.31K5.32,1.0,original
Ag29.09B3.4F20.82O1.59,1.0,original
Ce5.72Pt7.15Si0.25,1.0,original
Ag29.09B0.73F20.82O1.59,1.0,original
Ir1.52Ta0.21,1.0,original
Al20.94La1.11V1.53,1.0,original
Ir1.56,1.0,original
Cd10.15Mg0.35,1.0,original
Ru8.24U3.54,1.0,original
Ir1.55,1.0,original
Ir1.21Ru0.5,1.0,original
Bi1.47Te4.87Tl4.41,1.0,original
Cu0.13Rh2.61Se2.38Sn0.34,1.0,original
Os2.4,1.0,original
Ir1.62U3.54,1.0,original
Ce5.81Pt2.29Si0.58,1.0,original
As1.13Se0.17Zr3.7,1.0,original
Cd10.62Mg0.21,1.0,original
C1.29Cs10.49,1.0,original
Be12.82Th3.56,1.0,original
Ir1.58,1.0,original
Ir1.19Mo0.16,1.0,original
Ir1.28Ru0.41,1.0,original
Ir0.68Re0.12Rh0.65,1.0,original
La3.98Sb3.61Y2.04,1.0,original
Hf9.88,1.0,original
Ir1.57,1.0,original
Ag2.73Al0.28,1.0,original
Mo2.35Zr3.7,1.0,original
Ir1.49Ta0.29,1.0,original
Ir1.12Mo0.21,1.0,original
Pt2.29S0.95Sb1.15,1.0,original
Ir1.61,1.0,original
Ag3.4Ga0.15,1.0,original
Ir1.59,1.0,original
Ir1.62,1.0,original
Mo0.47V0.34,1.0,original
Sc0.19Zr3.51,1.0,original
Rh0.46Ru1.75,1.0,original
Ir1.35Ru0.28,1.0,original
Ag2.86Al0.24,1.0,original
Ce5.81In8.92Rh1.7,1.0,original
Sn0.75Te2.36,1.0,original
Ir1.6,1.0,original
Ag2.55Al0.32,1.0,original
Cd8.25Mg0.87,1.0,original
Ir1.43Ru0.15,1.0,original
Y1.68,1.0,original
Ge0.71Te2.37,1.0,original
Ca0.19O0.2Sr0.93Ti4.19,1.0,original
O0.2Sr1.28Ti4.19,1.0,original
Ce5.81Cu0.76Ge0.15Si0.48,1.0,original
Cr0.22V0.35,1.0,original
Mo0.26Rh1.1,1.0,original
Os0.68Rh1.06,1.0,original
Ag2.65Al0.3,1.0,original
B1.62Ce5.81Ni4.79,1.0,original
C0.24La1.09Ni2.3,1.0,original
Ir1.21Os0.16Rh0.15,1.0,original
Al2.03Au7.67,1.0,original
Cr0.18Mo0.6,1.0,original
Ir0.59Os0.44Rh0.64,1.0,original
Os2.48,1.0,original
Ir0.84Os0.37Rh0.42,1.0,original
Mo0.85,1.0,original
Ir3.36Pr0.54Zn40.94,1.0,original
Al0.98Th7.22,1.0,original
Os2.94,1.0,original
Co0.18Ru2.45,1.0,original
Ag3.26,1.0,original
Ag3.18,1.0,original
Ag2.45Al0.35,1.0,original
Cu0.76Sb1.15,1.0,original
Pd1.94V2.32,1.0,original
Sc0.29Zr3.43,1.0,original
Ir0.58Rh0.79,1.0,original
Al0.98B3.4Yb9.91,1.0,original
La1.11Rh3.52Si0.58,1.0,original
Sn0.75Te2.35,1.0,original
Cr0.36Rh0.33,1.0,original
Sb0.15,1.0,original
Cr1.47Rh1.7,1.0,original
Ir3.36Pr0.75Zn40.94,1.0,original
Ir3.36Pr0.72Zn40.94,1.0,original
La1.11Os6.17Zn40.94,1.0,original
Ir1.45Ta0.42,1.0,original
Ag8.28I10.24,1.0,original
Ir1.45Pt0.1,1.0,original
Ag8.28F5.12,1.0,original
Ag3.36,1.0,original
Os2.59,1.0,original
Ir1.28Rh0.15,1.0,original
Pb3.12Te2.37,1.0,original
Ir1.43,1.0,original
Ag3.34,1.0,original
Os6.17Pr0.75Zn40.94,1.0,original
Pr0.75Rh3.52Zn40.94,1.0,original
Sn0.75Te2.33,1.0,original
Ir1.19Rh0.24,1.0,original
Ir0.23Rh0.79Ru0.69,1.0,original
Ag3.38,1.0,original
Ag20.77O1.03Pb6.37,1.0,original
Sn0.75Te2.34,1.0,original
Ir0.1Os0.52Rh1.11,1.0,original
Ir1.1Rh0.24Ru0.13,1.0,original
Al20.94Pr0.75V1.53,1.0,original
Ga0.17,1.0,original
Sb0.18,1.0,original
Au7.28,1.0,original
Ag3.43,1.0,original
Ir1.28Pt0.34,1.0,original
Cr0.22Mo0.5,1.0,original
Au6.97,1.0,original
Cu3.28La1.11,1.0,original
Cu1.39Sb1.15,1.0,original
Mo1.1S0.24Te3.95,1.0,original
Ir0.82Os0.21Rh0.53,1.0,original
Os0.9Rh1.12,1.0,original
Ir1.33Pt0.16,1.0,original
Ag3.47Sb0.11,1.0,original
Ce5.84Ge1.55Ni4.85,1.0,original
Ir1.41Pd0.14,1.0,original
Au6.43In0.16,1.0,original
Sn0.75Te2.32,1.0,original
Ir1.1Rh0.79Ru0.55,1.0,original
Ir1.23Pt0.28,1.0,original
Ir1.45Pd0.1,1.0,original
Au7.01,1.0,original
Ce5.84Ge1.56Ni4.84,1.0,original
Ir1.14Rh0.24,1.0,original
As0.65Rh2.43,1.0,original
Cr0.27Mo0.38,1.0,original
Mo0.2Rh1.19,1.0,original
Ir1.28Rh0.24,1.0,original
La0.83Pr0.13Se0.54,1.0,original
Sn0.77Te2.37,1.0,original
Ir1.3Rh0.21,1.0,original
Ag3.55,1.0,original
Ir1.19Rh0.33,1.0,original
C1.29Rb5.68,1.0,original
Ag3.47,1.0,original
Pt2.29,1.0,original
Ir0.41Rh0.79Ru0.41,1.0,original
Ag3.59,1.0,original
Ag3.63,1.0,original
Au7.12,1.0,original
Cd7.06Mg1.2,1.0,original
Mo0.72Nb0.21,1.0,original
Sn0.75Te2.31,1.0,original
Mg2.94Pb0.11,1.0,original
Ag2.86Zn0.58,1.0,original
Au7.2,1.0,original
Ce0.71Cu0.13Gd6.32O0.48Sm7.77,1.0,original
Mo3.59Re1.43,1.0,original
Nb0.34Ta3.1,1.0,original
Ag3.32In0.22,1.0,original
Ag3.7,1.0,original
Ce0.71Cu0.13Gd8.04O0.48Pr0.71,1.0,original
Cu0.11La2.33O0.48,1.0,original
Cu0.13La2.48O0.48,1.0,original
Cu0.13La2.43O0.48,1.0,original
Au7.5,1.0,original
Li7.24,0.0,synthetic
Rh1.7,0.0,synthetic
Ba3.34Cu3.91La4.7O3.94,0.0,synthetic
Ba1.72Cu0.13O1.08Tl8.96,0.0,synthetic
Ca1.05Cu0.76O1.28Sr3.22Tl4.41,0.0,synthetic
Ba1.72Cu1.39Gd5.33O1.2Pr0.28,0.0,synthetic
Ba1.72Cu1.39Gd6.23O1.17Pr0.21,0.0,synthetic
Ba1.72Cu1.39O1.03Y1.97,0.0,synthetic
Ba1.72Cu1.39O1.03Y1.76,0.0,synthetic
Ba1.72Cu1.39O1.03Y1.49,0.0,synthetic
Bi1.61K4.88O0.2,0.0,synthetic
Cu0.12La2.33O0.48,0.0,synthetic
Ce0.71Cu0.13Nd9.09O0.49,0.0,synthetic
Ba1.72Co1.77Cu1.13O1.32Y2.04,0.0,synthetic
Ba1.72Cu1.08Fe0.38Nd4.84O1.46,0.0,synthetic
Ce0.17Cu0.13La2.46O0.48,0.0,synthetic
B1.62Co4.41Ni2.3Y2.04,0.0,synthetic
In4.82Sn0.13Y2.04,0.0,synthetic
B1.62Er7.65Ni4.62,0.0,synthetic
B1.62Er7.65Ni4.49,0.0,synthetic
B1.62Ni4.29Tm7.72,0.0,synthetic
B1.62Nb1.1,0.0,synthetic
B1.55Nb0.92,0.0,synthetic
Fe1.06Se0.2Te1.25,0.0,synthetic
As0.65Co0.32Fe0.89Na3.91,0.0,synthetic
As1.47Ba0.64Fe2.28,0.0,synthetic
As1.47Ba0.1Fe2.1K2.59Mn2.23,0.0,synthetic
As1.47Ba0.64Fe1.66Ru1.25,0.0,synthetic
As1.47Ba0.64Fe0.7Ru3.35,0.0,synthetic
As1.47Ba0.64Fe2.3,0.0,synthetic
As1.24Ba0.64Fe2.3P0.44,0.0,synthetic
As0.65Fe0.96Gd8.95,0.0,synthetic
As0.65Fe0.6Gd8.95Ir0.46,0.0,synthetic
La1.11Ru7.99Si0.58,0.0,synthetic
As14.67Ca12.24Fe12.11Pt7.95,0.0,synthetic
As0.65F0.51Fe0.92Mn1.09Sm6.8,0.0,synthetic
As0.65F0.51Fe0.89Mn1.37Sm6.8,0.0,synthetic
As0.57Fe1.02P0.1Pr0.48Sr0.31,0.0,synthetic
As1.47Ca0.74Fe1.02,0.0,synthetic
As1.47Ca0.81Ce0.95Fe1.02,0.0,synthetic
Fe1.28H3.58Li5.77S0.84,0.0,synthetic
Fe1.28H3.58Li5.77S0.29,0.0,synthetic
As0.65F0.3Fe0.99La1.11,0.0,synthetic
As0.65Ce5.81Co1.27Fe0.63H3.58,0.0,synthetic
As0.21Fe1.02H0.48P0.9Sm6.8,0.0,synthetic
As0.57Fe1.02La1.11P0.1,0.0,synthetic
As0.48Fe1.02La1.11P0.29,0.0,synthetic
As0.24Fe1.02La1.11P0.85,0.0,synthetic
Fe1.02Te2.37,0.0,synthetic
As0.65Ce5.81F0.2Fe1.02,0.0,synthetic
As0.65Fe1.02H1.57La1.11,0.0,synthetic
Ce5.81Co3.27In8.92Ni0.43,0.0,synthetic
As0.65Fe1.01Na3.91,0.0,synthetic
Se0.29Ta5.24Te3.37,0.0,synthetic
As1.47Ca1.05Fe2.23,0.0,synthetic
As3.12Ca1.05Fe4.54K5.32Ni0.44,0.0,synthetic
Al2.03As0.81Ca4.78Fe2.3O1.03P1.4,0.0,synthetic
Al2.03As0.65Ca4.78Fe2.3O1.03P1.78,0.0,synthetic
Al2.03As0.24Ca4.78Fe2.3O1.03P2.71,0.0,synthetic
Al2.03Ca4.78Fe2.3O1.03P3.45,0.0,synthetic
Ce4.73Co4.41In8.92Sm1.13,0.0,synthetic
Bi1.47Ce5.81F2.5S2.07,0.0,synthetic
Bi1.47Ce4.61F2.5Nd0.84S2.07,0.0,synthetic
O0.48Pd0.24Tb27.77,0.0,synthetic
O0.2Sr1.46Ti4.19,0.0,synthetic
Bi0.46F2.5La1.11S2.07Sb0.16,0.0,synthetic
H3.58Sb2.38Ti8.52Zr7.55,0.0,synthetic
Bi3.16H3.58Ti8.52Zr7.55,0.0,synthetic
As1.47Ba0.64Mn14.15Ru2.65,0.0,synthetic
Ba0.64Bi3.16Mn14.15,0.0,synthetic
Co8.96La1.11Si0.58,0.0,synthetic
B1.62Co8.96Gd8.95,0.0,synthetic
Ni2.3Si0.92Y6.83,0.0,synthetic
As0.65Ni1.68Zr3.7,0.0,synthetic
As0.65Cu0.76,0.0,synthetic
As1.47Ba0.64Cu0.76,0.0,synthetic
Cu0.76Hf9.88P3.64,0.0,synthetic
Ba0.64Bi3.16Zn2.02,0.0,synthetic
B0.73La1.11N5.82Rh1.7,0.0,synthetic
As0.65Ge0.73Nb1.1,0.0,synthetic
Ce11.8Sb1.15,0.0,synthetic
B1.62Zn2.02,0.0,synthetic
Ca1.05Si1.26Sr1.46,0.0,synthetic
Ba0.64Ge3.25Rh3.52S6.54,0.0,synthetic
Cr0.97Hf9.88,0.0,synthetic
As0.65Ni2.3Sm6.8,0.0,synthetic
Ca1.05O0.2Os3.03,0.0,synthetic
Cr0.97O0.48Sr1.46,0.0,synthetic
N11.74S0.95Zr7.55,0.0,synthetic
Cr0.48Mn28.34N5.82,0.0,synthetic
Cr1.47N5.82Rh1.7,0.0,synthetic
Ca2.29O1.03Os3.03Zn2.02,0.0,synthetic
Co4.41O1.03Os3.03Sr3.22,0.0,synthetic
Cr0.48H3.58Sr1.46,0.0,synthetic
Mo1.1N2.86Sr1.46,0.0,synthetic
Mn14.15,0.0,synthetic
Ba0.64H3.58Sc4.95,0.0,synthetic
H3.58La1.11O0.2Si0.25,0.0,synthetic
Ba0.64Cr0.97O0.48,0.0,synthetic
Ce5.81Cr1.96Cu1.39O2.71,0.0,synthetic
K5.32O0.2Os3.03,0.0,synthetic
Bi3.16O1.03Os3.03,0.0,synthetic
Bi8.23Hf9.88La3.98,0.0,synthetic
Ba0.64Pd1.94Si0.25,0.0,synthetic
As0.65Fe1.02H3.58Sr1.46,0.0,synthetic
Fe0.38La1.11Sb2.38,0.0,synthetic
Bi1.47Ti4.19Zr3.7,0.0,synthetic
Sb1.15Ti4.19Zr3.7,0.0,synthetic
As0.65Cr0.48La1.11,0.0,synthetic
As0.65Ce5.81Cr0.48,0.0,synthetic
As0.65Cr0.48Pr0.75,0.0,synthetic
As0.65Cr0.48Sm6.8,0.0,synthetic
As0.65Cr0.48Nd4.84,0.0,synthetic
Bi3.16Ca1.05Mn14.15,0.0,synthetic
As1.47Ba0.64Fe1.02Mn14.15,0.0,synthetic
La1.11Mn28.34Si0.58,0.0,synthetic
Ba0.64Co8.96Ge1.57,0.0,synthetic
As0.65La1.11Ni2.3,0.0,synthetic
K5.32Ni4.79Se1.15,0.0,synthetic
Ba1.72Cu1.39P7.36,0.0,synthetic
Cu0.29Gd8.95P3.17,0.0,synthetic
As0.65Ge0.73Ta5.24,0.0,synthetic
Ag4.11Bi3.16La1.11,0.0,synthetic
Ag4.11Bi3.16Ce5.81,0.0,synthetic
Bi1.47Gd18.01,0.0,synthetic
Au7.67P1.78Sr1.46,0.0,synthetic
Si0.92Ta26.68,0.0,synthetic
Ni2.3Si0.92Sr1.46,0.0,synthetic
Ba0.64Ge3.25Rh3.52Se3.61,0.0,synthetic
Cr0.48N5.82Ta5.24,0.0,synthetic
O0.2Os3.03Sr1.46,0.0,synthetic
H3.58La1.11Mn14.15O0.2Sr1.46,0.0,synthetic
F10.35O0.2Sr3.22Ti4.19,0.0,synthetic
Hf19.86N11.74S0.95,0.0,synthetic
Mn42.54N5.82Zn2.02,0.0,synthetic
O1.03Os3.03Sr4.98,0.0,synthetic
Ba1.72O1.03Os3.03Sc4.95Y2.04,0.0,synthetic
Ba0.64Bi1.47S3.19,0.0,synthetic
Ca2.29Cr0.48O0.48,0.0,synthetic
Ca1.05Cr0.48O0.48Y2.04,0.0,synthetic
Na126.8Si45.57,0.0,synthetic
Pt2.29Sb2.38,0.0,synthetic
N0.49O0.73Ti12.85,0.0,synthetic
Na3.91O0.48Ti8.52,0.0,synthetic
Cr1.96Cu1.39O2.71Sr1.46,0.0,synthetic
Cr1.96Cu1.39Lu3.29O2.71,0.0,synthetic
Cu1.39La1.11O2.71Ru11.04,0.0,synthetic
Ca3.54Li7.24O1.03Os3.03,0.0,synthetic
O1.31Os6.17Pb6.37,0.0,synthetic
Bi8.23La3.98Ti4.19,0.0,synthetic
As0.65Ti4.19Zr3.7,0.0,synthetic
As0.65Cr0.48F5.12Sr1.46,0.0,synthetic
As0.65F5.12Mn14.15Sr1.46,0.0,synthetic
Ge0.73Mg3.17Ni2.3,0.0,synthetic
La3.98Ni2.3Si0.92,0.0,synthetic
As1.47Ba0.64Cu3.28,0.0,synthetic
Cu0.76P3.64Zr3.7,0.0,synthetic
Cu0.13Hf9.88Si0.58,0.0,synthetic
Bi3.16F10.35Sr3.22Ti8.52,0.0,synthetic
As8.07Ca12.24Fe12.54Ir6.85P1.78,0.0,synthetic
As0.65Cr0.48Eu6.81F5.12,0.0,synthetic
As0.65Ba0.64F5.12Mn14.15,0.0,synthetic
As1.47Ba0.64Mn28.34,0.0,synthetic
Co8.96Ge1.57Y2.04,0.0,synthetic
Co8.96Ge1.57La1.11,0.0,synthetic
Ca2.29Cu3.28P9.22,0.0,synthetic
Cu0.13Sb2.38Y2.04,0.0,synthetic
As1.47Cu0.76Zr3.7,0.0,synthetic
Cu0.13Ge1.57Hf9.88,0.0,synthetic
B0.73Ir1.62La1.11N5.82,0.0,synthetic
Ba0.64Ni2.3Sn2.54,0.0,synthetic
Bi1.47Ce11.8,0.0,synthetic
Bi1.47Er15.39,0.0,synthetic
Au7.67Si0.25Sr1.46,0.0,synthetic
Ge2.41V3.91,0.0,synthetic
Ir5.11Ta26.68,0.0,synthetic
Ba0.64Ge3.25Ir3.36S6.54,0.0,synthetic
Cr0.97N5.82,0.0,synthetic
Ba0.64O0.2Os3.03,0.0,synthetic
Ca1.05Cr1.96Cu1.39O2.71,0.0,synthetic
Li7.24O1.03Os3.03Sr3.22,0.0,synthetic
O1.31Ti17.19,0.0,synthetic
Ba0.64Cr1.96Cu1.39O2.71,0.0,synthetic
Cr1.96Cu1.39Eu6.81O2.71,0.0,synthetic
Cd11.81O0.48Rh3.52,0.0,synthetic
Ca2.29O1.31Os6.17,0.0,synthetic
Ir3.36O1.31Pb6.37,0.0,synthetic
F5.12Fe1.02La1.11Si0.25,0.0,synthetic
Co8.96Hf9.88Si0.58,0.0,synthetic
As0.65Si0.25Ti4.19,0.0,synthetic
Mg6.46Pt2.29Si0.25,0.0,synthetic
P5.5V3.91,0.0,synthetic
Ga0.99Si0.28Yb9.91,0.0,synthetic
Cl8.18Ti4.19,0.0,synthetic
N11.74Zr7.55,0.0,synthetic
Al0.98Mn42.54,0.0,synthetic
Ca3.54O1.03Os3.03,0.0,synthetic
O1.03Os3.03Sr3.22Y2.04,0.0,synthetic
Ge0.73O0.2Sr1.46,0.0,synthetic
N23.57Ti12.85,0.0,synthetic
Cr0.97Na3.91O0.48,0.0,synthetic
La3.98Sb6.07Ti4.19,0.0,synthetic
As0.65Eu6.81F5.12Mn14.15,0.0,synthetic
Co2.59La1.11Sb2.38,0.0,synthetic
As1.47Ba0.64Cu0.64,0.0,synthetic
As1.47Cu0.13Y2.04,0.0,synthetic
As0.65Cu0.13Si0.25Zr3.7,0.0,synthetic
La2.55Te2.37,0.0,synthetic
Ba0.64Ge3.25Ir3.36Se3.61,0.0,synthetic
Cu0.13N5.82,0.0,synthetic
Ca1.05O0.2Ru2.65,0.0,synthetic
Ca1.05O0.2Rh1.7,0.0,synthetic
Mn14.15O1.03Os3.03Sr3.22,0.0,synthetic
Ir1.62Sb2.38,0.0,synthetic
Cr1.96Cu1.39O2.71Y2.04,0.0,synthetic
Bi1.47Cr1.96Cu1.39O2.71,0.0,synthetic
Ca6.02O2.71Os6.17,0.0,synthetic
As1.47H3.58Ti8.52Zr7.55,0.0,synthetic
Co8.96Ge1.57Hf9.88,0.0,synthetic
B1.62Mn14.15,0.0,synthetic
Cl8.18Cr0.48,0.0,synthetic
Mn42.54Sn0.78,0.0,synthetic
Ca2.29Mn14.15O1.03Os3.03,0.0,synthetic
O1.03Os3.03Pb3.13Sr3.22,0.0,synthetic
N23.57Zr11.4,0.0,synthetic
Cr1.47,0.0,synthetic
Ni1.68P1.78Zr3.7,0.0,synthetic
Ca3.54Cr0.97O1.31,0.0,synthetic
Ba2.8C10.41,0.0,synthetic
Pb12.86Zr19.11,0.0,synthetic
Ca2.29Fe1.02O1.03Os3.03,0.0,synthetic
Ir1.62Na3.91O0.2,0.0,synthetic
Ge0.73,0.0,synthetic
Co8.96O1.03Sr4.98,0.0,synthetic
Li7.24O0.2Os3.03,0.0,synthetic
Ge5.76Rh5.35,0.0,synthetic
As0.65Fe1.02H3.58Mg3.17,0.0,synthetic
As0.65Ba0.64Fe1.02H3.58,0.0,synthetic
As0.65Eu6.81Fe1.02H3.58,0.0,synthetic
Fe1.02H3.58Mg3.17P1.78,0.0,synthetic
Ca1.05Fe1.02H3.58P1.78,0.0,synthetic
Fe1.02La1.11Sb1.15,0.0,synthetic
Ca1.05Fe1.02Se0.54,0.0,synthetic
Fe1.02Se0.54Sr1.46,0.0,synthetic
F5.12Fe1.02K5.32Se0.54,0.0,synthetic
Fe1.02Y2.04,0.0,synthetic
Ba0.64Fe2.3Sb2.38,0.0,synthetic
Ba0.64Fe2.3Se1.15,0.0,synthetic
Fe1.02Si0.58Zr3.7,0.0,synthetic
B1.62Fe2.3Zr3.7,0.0,synthetic
As1.47Fe2.3Mg3.17,0.0,synthetic
As1.47Cd11.81Fe2.3,0.0,synthetic
B1.62Fe2.3Y2.04,0.0,synthetic
Ca12.24Fe10.23Pt13.96Sb22.06,0.0,synthetic
As0.65Ba1.72Fe1.02In1.68O0.2,0.0,synthetic
As0.65Fe1.02In1.68O0.2Sr3.22,0.0,synthetic
As0.65Fe1.02Sr3.22,0.0,synthetic
As0.65Ba0.64Fe1.02O0.2,0.0,synthetic
As1.47Fe2.3O0.75Sr6.74V1.53,0.0,synthetic
Bi3.16Fe2.3O0.48Se1.15Sr1.46,0.0,synthetic
As3.12Fe4.86La3.98,0.0,synthetic
As3.12Ca3.54F10.35Fe4.86,0.0,synthetic
Ag4.11As0.65Fe1.02,0.0,synthetic
As2.3Ca1.05Fe4.86,0.0,synthetic
Ag4.11As2.3Ca1.05Fe3.58,0.0,synthetic
As2.3Ca1.05Cu0.13Fe3.58,0.0,synthetic
As2.3Ca1.05Fe3.58Li7.24,0.0,synthetic
As2.3Fe4.86La3.98O0.48,0.0,synthetic
As3.95Fe4.86La3.98O0.48,0.0,synthetic
Cu0.76Fe2.3O0.75Se1.15Sr4.98,0.0,synthetic
Cu0.76Fe2.3K2.05O0.75Se1.15Sr4.28,0.0,synthetic
As3.12Fe4.86La3.98O0.48,0.0,synthetic
As3.12Ca3.54F15.58Fe4.86,0.0,synthetic
Fe2.3Na3.91O0.48,0.0,synthetic
As1.47Sr1.46Ti8.52,0.0,synthetic
As1.47Eu6.81Ti8.52,0.0,synthetic
Ba0.64Sb2.38Ti8.52,0.0,synthetic
Ba0.64Ge1.57V1.53,0.0,synthetic
Ba0.64Sn1.66V1.53,0.0,synthetic
As1.47Ca1.05Mn28.34,0.0,synthetic
Ca1.05Mn28.34Sb2.38,0.0,synthetic
As1.47Ba0.64Co4.41Mn14.15,0.0,synthetic
As1.47Ba0.64Mn14.15Rh1.7,0.0,synthetic
As1.47Ba0.64Ir1.62Mn14.15,0.0,synthetic
La2.55Mn28.34Te4.87,0.0,synthetic
Ba0.64Mn28.34Se1.15,0.0,synthetic
Co8.96Si0.58Zr3.7,0.0,synthetic
As0.65Ca1.05H3.58Ni2.3,0.0,synthetic
Ni4.79Si0.58Zr3.7,0.0,synthetic
Ni2.3P1.78Rh1.7,0.0,synthetic
Cu0.76Sb1.15,0.0,synthetic
As0.65Cu0.13Mg3.17,0.0,synthetic
Ce5.81Cu0.13P1.78,0.0,synthetic
Bi1.47Cu0.13S0.95,0.0,synthetic
B1.62La3.98N17.65Ru5.45,0.0,synthetic
B0.73La1.11N5.82Ru2.65,0.0,synthetic
Ga2.26Sr1.46,0.0,synthetic
Ba0.64Ga2.26,0.0,synthetic
La2.55Sb1.15,0.0,synthetic
Ag4.11Ce5.81Sb2.38,0.0,synthetic
Bi1.47Y4.44,0.0,synthetic
Bi1.47La2.55,0.0,synthetic
Bi1.47Pr1.53,0.0,synthetic
Bi1.47Nd9.83,0.0,synthetic
Bi1.47Sm13.73,0.0,synthetic
Bi1.47Eu13.73,0.0,synthetic
Bi1.47Yb19.9,0.0,synthetic
La6.85Si0.92,0.0,synthetic
As0.65Pd1.94Sr1.46,0.0,synthetic
Pt2.29Sb1.15Sr1.46,0.0,synthetic
Ba0.64Pt2.29Sb1.15,0.0,synthetic
As0.65Pt2.29Y2.04,0.0,synthetic
La1.11Pt2.29Sb1.15,0.0,synthetic
Ag4.11As0.65Mg3.17,0.0,synthetic
Co4.41P1.78Sr1.46,0.0,synthetic
Ni2.3P1.78Sr1.46,0.0,synthetic
Cu0.13P1.78Sr1.46,0.0,synthetic
P1.78Pd1.94Sr1.46,0.0,synthetic
Ag4.11P1.78Sr1.46,0.0,synthetic
Ir1.62P1.78Sr1.46,0.0,synthetic
Au7.67Sn0.78Sr1.46,0.0,synthetic
Pt2.29Sn0.78Sr1.46,0.0,synthetic
Au7.67Sb1.15Sr1.46,0.0,synthetic
Au7.67Ca1.05P1.78,0.0,synthetic
P5.5V44.36,0.0,synthetic
As2.3N5.82V3.91,0.0,synthetic
Nb6.17Si0.92,0.0,synthetic
Pb9.62Zr19.11,0.0,synthetic
Li7.24Mg13.03Si0.92,0.0,synthetic
Mg13.03Na3.91Si0.92,0.0,synthetic
Mg13.03Si0.92Sr1.46,0.0,synthetic
Ba0.64Mg13.03Si0.92,0.0,synthetic
Mg13.03Si0.92Y2.04,0.0,synthetic
Ba0.64Ge2.41Mg13.03,0.0,synthetic
B1.62Cr0.48,0.0,synthetic
Ca1.05Cu0.13Si0.25,0.0,synthetic
Al0.98Lu6.67Si0.58,0.0,synthetic
Ba2.8Ga0.76Si1.36,0.0,synthetic
Bi20.05Fe4.86La1.11,0.0,synthetic
Bi20.05Co18.05La1.11,0.0,synthetic
Bi20.05La1.11Ni9.77,0.0,synthetic
Bi20.05La1.11Ru11.04,0.0,synthetic
Bi20.05La1.11Rh7.17,0.0,synthetic
Bi20.05La1.11Pd8.06,0.0,synthetic
Bi20.05Ir6.85La1.11,0.0,synthetic
Bi20.05La1.11Pt9.58,0.0,synthetic
Cr0.48N5.82Nb1.1,0.0,synthetic
F5.12N5.82Ti4.19,0.0,synthetic
P1.78Sb1.15Ti8.52,0.0,synthetic
P1.78Sb1.15Zr7.55,0.0,synthetic
Cr0.97Ti4.19,0.0,synthetic
Cr0.97Zr3.7,0.0,synthetic
Ni2.3Te4.87,0.0,synthetic
F15.58Na3.91Ni2.3,0.0,synthetic
As0.65Zr3.7,0.0,synthetic
La3.98Ni4.79O1.31,0.0,synthetic
Bi3.16O1.03W5.25,0.0,synthetic
Fe1.02I10.24,0.0,synthetic
Cl8.18V0.73,0.0,synthetic
N11.74S0.95Ti8.52,0.0,synthetic
N11.74Ti8.52,0.0,synthetic
Cl8.18Cs10.49La1.11O0.75Te4.87,0.0,synthetic
Al0.98Mn42.54N5.82,0.0,synthetic
Al0.98Ni7.28,0.0,synthetic
Ca3.54Si0.25,0.0,synthetic
Ca3.54Sn0.78,0.0,synthetic
Ca2.29Pb3.13,0.0,synthetic
Ag12.44P1.78Sr1.46,0.0,synthetic
Ir5.11P1.78Sr1.46,0.0,synthetic
Au23.17P1.78Sr1.46,0.0,synthetic
Mg6.46Ni9.77,0.0,synthetic
Ca4.78Sb2.38,0.0,synthetic
Ca2.29Co4.41O1.03Os3.03,0.0,synthetic
Ca1.05O1.03Os3.03Zn2.02,0.0,synthetic
Fe1.02O1.03Os3.03Sr3.22,0.0,synthetic
Co4.41O1.03Os3.03Sr1.46,0.0,synthetic
Ni2.3O1.03Os3.03Sr3.22,0.0,synthetic
Dy10.45O1.03Os3.03Sr3.22,0.0,synthetic
Fe1.02Mo1.1O1.59Sr6.74,0.0,synthetic
Mo1.1Na1.93Sr1.46,0.0,synthetic
N5.82Nb1.1Sr1.46,0.0,synthetic
Ba0.64La1.11Mn28.34O1.03,0.0,synthetic
Ba0.64Mn28.34O1.03Y2.04,0.0,synthetic
Bi3.16Cu0.76O0.48Se1.15Y2.04,0.0,synthetic
Cr0.48O0.48Sr3.22,0.0,synthetic
Bi3.16Cu0.76O0.48Se1.15Sr1.46,0.0,synthetic
Ca1.05Cr0.48O0.48,0.0,synthetic
Cu0.76Fe1.02Ni2.3O0.75Se1.15Sr4.98,0.0,synthetic
Cu2.02La2.55O0.75Se1.15Sr1.46,0.0,synthetic
Cr102.14Sr4.98,0.0,synthetic
Cu0.76Ni4.79Se125.69Sr4.98,0.0,synthetic
Ca3.54Cr102.14,0.0,synthetic
Cu2.02O0.75Se1.15Sr4.98,0.0,synthetic
La1.11O0.48Sr1.46Ti4.19,0.0,synthetic
B5.18Ca3.54Ni29.7,0.0,synthetic
B5.18Ni29.7Sr4.98,0.0,synthetic
C4.1K5.32,0.0,synthetic
C10.41Mg6.46,0.0,synthetic
C0.24Ca1.05,0.0,synthetic
Ba0.64C0.24,0.0,synthetic
C0.24Y2.04,0.0,synthetic
Hf29.83N23.57,0.0,synthetic
Cr0.48N5.82,0.0,synthetic
O2.71Sc19.99Ti12.85,0.0,synthetic
Ca1.05O0.75V1.53,0.0,synthetic
Li7.24O0.48V1.53,0.0,synthetic
Ca1.05Cr0.97O0.48,0.0,synthetic
Ba0.64Cr1.96Cu0.13O2.71,0.0,synthetic
Cr1.96Cu1.39La1.11O2.71,0.0,synthetic
Ag8.28Mn14.15,0.0,synthetic
Li7.24Mn28.34O0.48,0.0,synthetic
N5.82Nb1.1O0.2Sr3.22,0.0,synthetic
La1.11O2.15Ru5.45,0.0,synthetic
Bi4.85O2.43Ru8.24,0.0,synthetic
C1.99O1.31Ru5.45Sr4.98,0.0,synthetic
F10.35O1.31Ru2.65Sr3.22,0.0,synthetic
Ba0.64O0.2Sb1.15,0.0,synthetic
Cs10.49O1.03W10.56,0.0,synthetic
N5.82Sr1.46W5.25,0.0,synthetic
Ba1.72O0.75Os3.03,0.0,synthetic
Bi1.47O1.03Os3.03,0.0,synthetic
Ag8.28Bi1.47O0.2,0.0,synthetic
K5.32Mo3.59S3.19,0.0,synthetic