formula,Tc
Ti0.81Zr0.82,1.03
Ir2Sc1,1.03
Th1In1.5Sn1.5,1.03
Pd0.542Fe0.003Sb0.456,1.025
Sc1V2Al20,1.02
Ag7N1O11,1.02
La1Se1,1.02
Te1Y1,1.02
Al2Cu1,1.02
In0.82Te1,1.02
U1Ni2Al3,1.02
Ce1Co1In4.9Sn0.1,1.017
Ti0.98Ta0.02Se2,1.015
Sn0.956In0.044Te1,1.014
Pr0.75Ce0.25Pt4Ge12,1.01
Th1U0.05,1.01
Ti0.2Zr0.8,1.01
Pr0.55Nd0.45Os4Sb12,1
Sm0.04La0.96Ni1C2,1
Cd2Re2O7,1
Hg1Ba2Cu1O4.03,1
Cd2Re2O7.1,1
K1Ca2Nb3O10,1
Sr2Ru1O4,1
U1,1
Fe0.416U0.584,1
La1Os4Sb12,1
Be2Ta3,1
Bi1Pd1Se1,1
Bi3Te1,1
Fe0.1Zr0.9,1
Hf1Mo2,1
La0.48Y0.52,1
O1.07Ti1,1
Pd1Sb1Se1,1
Pt1Ta1,1
Ru0.4V0.6,1
P3Pd7,1
Pt0.3Ta0.7,1
Bi3Fe1,1
Bi4Mg1,1
C1W1,1
Sn18.59Er4.41Rh6,1
U1Ni2Al3,1
Lu4.5Dy0.5Ir4Si10,1
Y1In1.5Pb1.5,1
Ca1B1.25Pd3,1
Co1Ta1.75Zr0.25,1
Cu0.98Co0.02Rh2S4,1
Hf0.34Mo0.66,1
La1N1,1
Ba1Rh2P2,1
Lu1Pt1Bi1,1
Sr1Pt1Ge3,1
La1Ni1Sb2,1
La1Fe0.951Zn0.049As1F0.28O0.68,1
Y1Fe2Ge2,0.993
Lu1Pt0.96Pd1.04In1,0.99
Ce1Ir1In4.955Hg0.045,0.99
Rb1Hg1C4,0.99
Ge3U5,0.99
Cd2Re2O7,0.988
Ce1Ir1In4.95Cd0.05,0.981
U1Be12.956B0.044,0.98
Mo1Te1.82S0.18,0.98
Cd2Re2O7,0.98
Fe0.546U0.454,0.98
Ir0.5Os0.5,0.98
Pt3Th7,0.98
Rh0.02U0.98,0.98
U1Ni2Al3,0.98
Y1.68Lu0.32Fe3Si5,0.98
Y1Pt1Bi1,0.97
Ba4Sr2Nb10O30,0.97
Cd2Re2O7,0.97
Pr1Ru4Sb12,0.97
Sn18.43Er4.57Rh6,0.97
Ce1Rh0.5Ir0.5In5,0.97
Pr1Os0.6Ru3.4Sb12,0.97
Th0.760Tm0.240,0.97
La1Pd2As2,0.96
Y1Pt1Bi1,0.96
Cd2Re2O7,0.96
Ag1La1,0.96
Ge1Rh1,0.96
Rh0.02U0.98,0.96
Bi2Pd3Se2,0.96
Y1In3,0.96
La1Pd2Ge2,0.96
La3Ni4Si4,0.96
Ba5Sr1Nb10O30,0.956
Y1Pd2P2,0.955
Be13U1,0.954
Ce1Ir1In4.973Hg0.027,0.954
Sr2Ru1O4,0.95
Pb0.985Tl0.01In0.005Te1,0.95
Be13U1,0.95
Cu0.045Ti1Se2,0.95
In0.63V6S8,0.95
Pr0.102Th0.898,0.95
U1Ru2Si2,0.95
Ba1Ti2Sb2O1,0.95
La1Pt1.94Ge2.06,0.941
Ba1Nb2S5,0.94
Be13U1,0.94
Pr1Os0.6Ru3.4Sb12,0.94
Al3Yb1,0.94
Ce1Rh0.55Ir0.45In5,0.94
Os0.56Re0.44,0.94
Sn0.12Eu0.9Mo6.35S8,0.94
Nb3Os1,0.94
Mo0.2Nb0.64Pd0.16,0.94
La0.988Tb0.012Al2,0.936
Mn1P1,0.932
Sn0.979In0.021Te1,0.93
La0.995Gd0.005Al2,0.93
Ce1Co1In4.88Sn0.12,0.93
Mg1Zn1,0.93
Pd1Si1,0.93
Pr1.85Ce0.15Cu0.99Ni0.01O4.065,0.93
Re2Sc1,0.93
Er2Fe3Si5,0.93
Ir1Sn4,0.92
Au1Zr3,0.92
Mg1Zn1,0.92
Rh0.24Sc0.76,0.92
Sn1Zr4,0.92
Mo1,0.92
Zr1,0.92
Sr1Pd2As2,0.92
Ce0.8Yb0.2Co1In5,0.92
Ce1Rh1Si3,0.92
Mo1,0.916
Be13U1,0.916
Mo1,0.911
Mo1,0.91
Be13U1,0.91
Ce1Rh0.4Ir0.6In5,0.91
Au1Be1,0.91
Co0.5Ni0.5Ta2,0.91
Mo0.4Rh0.6,0.907
Pd0.539V0.006Sb0.455,0.903
La0.983Lu0.006Tb0.011,0.903
Be13U1,0.903
Pr0.2La0.8Os4Sb12,0.902
Lu1Pt0.72Pd1.28In1,0.901
Mo1,0.9
Be13U1,0.9
La1.85Sr0.15Cu0.977Ga0.023O4,0.9
Ce1Rh1Si3,0.9
Zr0.125Ti0.080Cu0.055Ni0.047Be0.693,0.9
As2W1,0.9
Co1Ta1.75Zr0.25,0.9
Ni1Ta2,0.9
Os0.075W0.925,0.9
Pt2Y3,0.9
Pt2Y8,0.9
U1Ni2Al3,0.9
Ce1Rh0.5Ir0.5In5,0.9
Y1Rh1Al1,0.9
Cu1Rh1.992Cr0.008S4,0.9
Th0.999U0.002,0.9
La1Bi1Pt1,0.9
C1,0.9
Sr2Ru1O4,0.9
Ce1Pd5Al2,0.9
La1Cu1Sb2,0.9
Y1Fe2Ge2,0.897
La1Ir1Si3,0.895
Ce1Ir0.987Pt0.013In5,0.893
Sr1Ni2Ge2,0.89
Mo1Te1.84S0.16,0.89
Pr0.6Nd0.4Os4Sb12,0.89
Be13U1,0.885
La2Ni2In1,0.88
K0.45W1O3,0.88
Ag0.167Al0.833,0.88
Be0.934Ni0.066,0.88
Mg2Zn11,0.88
Pt1Si1,0.88
Rh0.24Sc0.76,0.88
Ta0.8W0.2,0.88
Be13U1,0.88
Ce1Co0.8Ni0.2In5,0.88
Be13U1,0.875
Be13U1,0.87
Th1Ni1Si1,0.87
Bi3Zn1,0.87
Ge7Ir3,0.87
Hf2Ni1,0.87
Pt0.02U0.98,0.87
Th1Tl3,0.87
Ce1Co1.95,0.87
Ga2Ge2U1,0.87
Al3Mg2,0.87
Sr1Ni2Ge2,0.87
Eu2.5Sr0.5Bi2S4F4,0.867
Eu2.5Sr0.5Bi2S4F4,0.865
Zn1,0.86
Be13U1,0.86
K1Hg1C4,0.86
Lu1Ru2,0.86
Ni1U6,0.86
Ce1Co1.85,0.86
Ce0.875La0.125Co1In5,0.857
Y6Nb4Al43,0.855
Zn1,0.85
Ag4Ge1,0.85
Al0.61Mg0.39,0.85
Pt0.017U0.983,0.85
Ag7N0.75O10.25F0.25,0.85
As0.33In1Te0.67,0.85
Hf0.99Rh0.01,0.85
Be13U1,0.85
Zn1,0.849
La1Pd2Al3,0.84
Be13U1,0.84
Bi2Rh3Se2,0.84
Al3Mg2,0.84
Be0.92Cu0.08,0.84
Ir1Lu2,0.84
La1S1,0.84
Al2Mg2,0.84
Ce1Co2,0.84
Ce1Rh0.5Ir0.5In5,0.84
Ba4Na2Ge25,0.84
Pr1Os1Ru3Sb12,0.84
Sn0.975In0.025Te1,0.84
Sr1Pt1Ge3,0.834
Sr1Pt1Ge3,0.832
P1W1,0.83
Mo1Te1.88S0.12,0.83
Cr0.72Ir0.28,0.83
Cr0.28Ir0.72,0.83
U1Pd2.02Al3,0.825
La1Pt1.97Ge2.03,0.822
Zn1,0.82
Lu1Pt0.6Pd1.4In1,0.82
Co1Ta2,0.82
Pt3Y7,0.82
Ce1Co2,0.82
Ce1Rh0.45Ir0.55In5,0.818
La1Pd2Ge1.96Sn0.04,0.81
Pb0.982Tl0.01In0.008Te1,0.81
Pr1Os1.2Ru2.8Sb12,0.81
Pr1Os2Ru2Sb12,0.8
Ce1Co1In4.88Sn0.12,0.8
Ce1Pt3Si1,0.8
S2Ta1,0.8
Sb1V3,0.8
Ge2U1,0.8
Ca1B1.05Pd3,0.8
La0.93Pr0.07Tl3,0.8
La0.75Pr0.25Pb3,0.8
Os0.7Re0.3,0.8
O0.95Ti1,0.8
U1Co1Ge1,0.8
Pr1Os1.2Ru2.8Sb12,0.8
C6I4O2,0.8
Ta1S2,0.8
Ce1Cu2Si2,0.8
K1Ni2Se2,0.8
Sr1.7Ca0.3V1Fe1As1O3,0.8
Ce1Ir1In4.986Sn0.014,0.79
Ta1S2,0.79
Sr2Ru1O4,0.79
Bi2Ni3S2,0.79
Ce1Rh0.5Ir0.5In5,0.79
B2.75Be1,0.79
Am1,0.79
Rh0.005Ti0.995,0.79
Rh0.005Ti0.995,0.788
Am1,0.786
Bi0.5Sn0.5,0.785
Be13U1,0.785
Th1U0.001,0.785
Th1U0.001,0.78
Ta1Se1.7Te0.3,0.78
Cu0.489Zr0.511,0.78
Co0.403U0.597,0.78
As0.25Se0.75Y1,0.78
Cd0.002Zn0.998,0.78
In3Y1,0.78
Ir3Lu7,0.78
Ir1Sn2,0.78
Ir1Zn2,0.78
U1,0.78
Ag0.5Al0.5Th2,0.78
Cr0.09Ir0.91,0.78
Ce0.85La0.15Co1In5,0.77
U0.94Mo0.06,0.77
Ba0.33K0.67Bi1O3,0.77
La1Ir1Si3,0.77
Cr0.835Ir0.165,0.77
Ag0.2In0.8Te1,0.77
Th0.999U0.001,0.77
Al1Ce0.017La3,0.77
Y1Pt1Bi1,0.77
Y1Pt1Bi1,0.766
Ce1Co1In4.849Sn0.089Hg0.062,0.763
U1Co1Ge1,0.763
Ag0.005Zn0.995,0.761
Ba1Ni2As1.902P0.098,0.76
Th0.998U0.002,0.76
Bi1.08Ta1S3.08,0.76
Be0.96Ni0.04,0.76
Ga1Mo3,0.76
Mg2Zn3,0.76
Mo0.3V0.7,0.76
Pb1Zr3,0.76
Pd3Te1,0.76
Pt0.42Y0.58,0.76
Cr0.7Ir0.3,0.76
U1Pd2Al2.55Ga0.45,0.76
S8V6,0.76
Pr1Os1.6Ru2.4Sb12,0.76
La2.25Pr0.75Se4,0.76
Bi1La2,0.76
U1Co1Ge1,0.752
U1Co1Ge1,0.75
Ge2U1,0.75
Ce1.01Pt3Si1,0.75
Ce1Ir0.65Co0.35Si3,0.75
Pr1Os1.6Ru2.4Sb12,0.75
Al3Th1,0.75
Cr0.82Ir0.18,0.75
Cr0.017U0.983,0.75
Fe0.01La0.001Rh0.99,0.75
Fe0.01La0.01Rh0.98,0.75
Pd1Th2,0.75
Al3Tl1,0.75
Bi3Te1,0.75
Dy1Ni2B2C1,0.75
La1Os4Sb12,0.75
Ce1Pt3Si1,0.75
La1In2.25Sn0.75,0.75
Pr0.179Th0.821,0.75
Re0.15Ta0.85,0.75
La2Sb1,0.75
Ru0.86Rh0.14As1,0.75
Th1Pt3B1,0.75
La1Pd2P2,0.75
Y6Mo4Al43,0.75
Ce1Co1Ge3,0.748
U0.85Pt0.15,0.745
Ce1Pt3Si1,0.741
Ce1Pt3Si1,0.74
La1Os4Sb12,0.74
Cu0.589Zr0.411,0.74
B6Th1,0.74
Au1V3,0.74
Tl0.26V6S8,0.74
Ni2Hf1Al1,0.74
Nd0.4Ce0.83Co1In5,0.74
Nb1Te2,0.74
La3Ni4Ge4,0.74
Ce0.83Nd0.17Co1In5,0.736
Al6Re1,0.734
Mo1Te1.72S0.28,0.73
Ce1Ir0.978Pt0.022In5,0.73
Ce1Cu2Si2,0.73
Bi2Ni3Se2,0.73
K1Hg1C4,0.73
Al1Zr3,0.73
Al0.102Ti0.898,0.73
Ir0.6Os0.4,0.73
Os0.81Re0.19,0.73
Ir0.6Os0.4,0.727
Th0.05Zr0.95,0.725
La0.6Ce0.4Ru2,0.72
Th0.999U0.1,0.72
Ce1Pt2.97Si1,0.72
Be21Ni5,0.72
Sb1Ta3,0.72
Ge2U1,0.72
B2.75Be1,0.72
B3Be1.09,0.715
O0.92Ti1,0.714
Ta1S2,0.71
Gd0.002Th0.998,0.71
Co1Ti1,0.71
K1V6S8,0.71
Co0.000Mo1.000,0.71
Cr0.06Mo0.94,0.71
Sr1Rh1Ge3,0.71
Sr1Rh1Ge3,0.703
Ce1Cu2Si2,0.7
Sn0.57Pb0.38In0.05Te1,0.7
La1.85Sr0.15Cu0.975Ga0.025O4,0.7
Ce1Co1Ge3,0.7
Ge2U1,0.7
Al1Au4,0.7
In3La1,0.7
In1Pd1,0.7
P3Pd7,0.7
Pt2Sr1,0.7
Bi1Mg1,0.7
Au5Sn1,0.7
Bi4Mg1,0.7
In1Pb1,0.7
Ce1Cu2.05Si2,0.7
Al0.053Ti0.947,0.7
Os0.89Re0.11,0.7
La0.95Pr0.05Se1,0.7
O0.91Ti1,0.7
Ce0.02Th0.98,0.7
Al1.000Mn0.000,0.7
Pd9Se2,0.7
Sb1,0.7
Ce1Pt3Si1,0.7
Ce2Pd1In8,0.7
U0.94Mo0.06,0.69
Nd1Pt4Ge12,0.69
Y1In2.25Sn0.75,0.69
Th0.95Zr0.05,0.69
Ce1Co1Ge3,0.69
Nb5Si3,0.69
Y1V2Al20,0.69
La1Ni2Ge2,0.69
U0.95Pd0.05,0.69
U0.95Pt0.05,0.69
Pr1Pt4Ge9.5Sb2.5,0.68
Ce1Co1Ge3,0.68
Sr2Ru1O4,0.68
Ce1Pt3Si1,0.68
Sn0.76Ge0.19In0.05Te1,0.68
Ce2Pd1In8,0.68
Ba1Ni2As2,0.68
Ru0.58Rh0.42As1,0.68
Ba1Ni2Ge1P1,0.68
Pb0.38Sn0.57In0.05Te1,0.68
Au0.458Ge0.427Yb0.114,0.677
Y6Ta4Al43,0.675
Ce1Cu2Si2,0.671
Cd0.02Zn0.98,0.67
Os1,0.67
Ce1Rh0.2Ir0.8In5,0.67
Th2Zn1,0.67
Lu1Pd2Si2,0.67
La1In0.75Sn2.25,0.67
Th0.632Tm0.368,0.67
Be13U0.993Th0.007,0.67
Lu1Pt1.2Pd0.8In1,0.668
Sr1Ti1O3,0.667
La0.46Ce0.54Ru2,0.66
U1Co1Ge0.98Si0.02,0.66
U0.991Th0.009Be13,0.66
Au0.23V0.77,0.66
Nb1Te2,0.66
Os1,0.66
Pd6.7Se1,0.66
Pd6Se1,0.66
Ir0.8Re0.2,0.66
Th0.999U0.001,0.66
Sr1Ni2As2,0.658
Ce1Ir1In4.97Sn0.03,0.655
Th0.999U0.127,0.654
Au0.64Ge0.22Yb0.14,0.65
Th0.999U0.001,0.65
S2Ta1,0.65
Ce2Rh1In8,0.65
Al2.06Cu1,0.65
Rh1Y3,0.65
Ir1Sn2,0.65
Al0.029Ti0.971,0.65
Rb1V6S8,0.65
Ce1Cu2Si2,0.65
O2,0.65
Ca1Pb3,0.65
Be13U0.99Th0.01,0.65
U1Co1Ge1,0.65
U0.97Mo0.03,0.65
Ce1Co1Ge3,0.645
Be13U1,0.64
Fe0.000Mo1.000,0.64
Ce1Cu2Si2,0.64
Ag0.438Hg0.562,0.64
Pd3Sn2,0.64
Ce1Cu2Ge2,0.64
Ce1Rh0.25Ir0.75In5,0.64
Ce1Co0.5Ir0.5In5,0.64
O1Ti1,0.64
Pd9Se2,0.64
Bi3La5,0.64
Bi1,0.64
Ce1Co1Ge3,0.634
U0.92Gd0.02Pd2Al3,0.632
Ba1Ni2As1.972P0.028,0.63
La0.983Lu0.006Tb0.011,0.63
Ce1Cu2Si2,0.63
Ce1Pt3Si1,0.63
Ce1Pt3Si0.97Ge0.03,0.628
U0.99Th0.01Be13,0.624
Cd0.2Zn0.8,0.623
U0.99Th0.01Be13,0.62
U0.97Th0.03Be13,0.62
Am1,0.62
Ce1Ir0.8Co0.2Si3,0.62
Ge2U1,0.62
B2Nb1,0.62
Ce1Cu2.53Si2,0.62
Ce1Rh0.6Ir0.4In5,0.62
Ce1Rh0.25Ir0.75In5,0.62
Ce1Cu1.95Si2.01,0.62
Rh0.7Ru0.3Se2,0.62
Gd0.01La0.99,0.62
Os1,0.62
Be13Lu1,0.616
Th1Pd2Ge2,0.61
Sr2Ru1O4,0.61
Ce1Cu2Si2,0.61
Ir0.55Re0.15,0.61
U1Pd2Al3.03,0.61
Y1V2Al20,0.6
Pr1Ti2Al20,0.6
Sr2Ru0.999Ti0.001O4,0.6
Zn2Zr1,0.6
Ce2Rh1In8,0.6
Co0.611U0.389,0.6
As1Pd2,0.6
Au1In1,0.6
Gd0.01La0.99,0.6
Mo0.4Nb0.6,0.6
O1Ti1,0.6
Rh1Sn2,0.6
Ce1.025Cu2Si2,0.6
U0.97Th0.03Be13,0.6
Y1In2.25Pb0.75,0.6
Lu1,0.6
Ir0.72Re0.18Rh0.1,0.6
La1Pt3Si1,0.6
Be1,0.6
U1Co1Ge1,0.6
Nb1Te2,0.6
La1Ir2Zn20,0.6
Pr0.5Nd0.5Os4Sb12,0.6
Ce1Cu2Si2,0.6
Ca2In1N1,0.6
Ba1Pd0.5Si1.5,0.6
Sr1Pd2Sb2,0.6
Y1Fe2Ge2,0.6
Lu1V2Al20,0.596
Lu1Pd2Si2,0.59
Al0.999Mn0.001,0.59
Pt1Te1,0.59
Cr0.65Ir0.35,0.59
La1Ni1Sn1,0.59
Co0.000Mo1.000,0.59
Be13U0.976Th0.025,0.59
Au0.835Sn0.165,0.585
Ce0.85Sm0.15Co1In5,0.584
U0.97Th0.03Be13,0.58
Os0.9Ru0.1,0.58
Sr1Ti1O3,0.58
U0.974Th0.026Be13,0.58
Al1Mo3,0.58
As1Rh1,0.58
Au1Sb2,0.58
Be0.9Ni0.1,0.58
Pt1Ti3,0.58
O1Ti1,0.58
Ce0.025Th0.975,0.575
La1Ir2Zn20,0.573
Ba1Ni2As2,0.57
U0.998Th0.019Be13,0.57
Ce0.99La0.01Pt3Si1,0.57
Be0.95Os0.05,0.57
Pt3U1,0.57
Cu1Rh1.6Sn0.4Se4,0.57
Ce1Pd5Al2,0.569
Lu1Sn1Ge1,0.56
Os0.666Ru0.334,0.56
Be0.858Cu0.142,0.56
Co1Hf2,0.56
Lu1Se1,0.56
Rh5Y1,0.56
Na0.28O3W1,0.56
U0.962Th0.038Be13,0.558
Ce1Pt3Si0.94Ge0.06,0.557
U0.978Th0.022Be13,0.556
U0.962Th0.038Be13,0.553
Ce1Co1In4.86Sn0.14,0.55
Pt3U1,0.55
Sr0.95Ba0.05Ti1O3,0.55
Sr0.7Ca0.3Ti1O3,0.55
Al2Pt1,0.55
C8K1,0.55
Ir0.18Os0.47Rh0.35,0.55
Na0.2O3W1,0.55
Si3Sr2,0.55
C1K1,0.55
La0.901Pr0.099Tl3,0.55
Ir0.64Re0.16Rh0.2,0.55
Ir0.6Os0.1Rh0.3,0.55
Cd1,0.55
Th0.999U0.001,0.55
La1Pt2Ge2,0.55
Be13U0.965Th0.035,0.55
Zr1,0.55
U1Co1Ge1,0.55
U1Co1Ge1,0.547
Lu0.8Zr0.2B12,0.545
Pt3U1,0.541
Ce1Pt2.94Ni0.06Si1,0.541
Cd1,0.54
U1Co1Ge0.96Si0.04,0.54
Cu0.589Zr0.411,0.54
La0.28Pt0.72,0.54
Ce1Cu2Si1.98Ge0.02,0.54
O1.06Ti1,0.54
Ir0.15Os0.85,0.533
Ta1Ir1Te4,0.533
U0.957Th0.043Be13,0.532
Y2Ni1Ge3,0.53
U0.962Th0.038Be13,0.53
Ni0.404U0.596,0.53
Bi0.6Cd0.4,0.53
Cd0.97Hg0.03,0.53
Cd1,0.53
U0.957Th0.043Be13,0.53
Pr0.251Th0.749,0.53
Pd7Se2,0.53
Au0.845Sn0.155,0.53
Pt3U1,0.53
Sr1Ir1Ge3,0.53
Be13La1,0.53
U1Co1Ge1,0.53
Sr1Ir1Ge3,0.525
Be13U1,0.522
U0.983Th0.017Be13,0.52
Cd1,0.52
Zr1,0.52
U1Pd2Al2.7Ga0.3,0.52
U0.978Th0.022Be13,0.52
Pt3U1,0.52
Ce1Pd2Si2,0.52
Cd1,0.519
Hf1As1.7Se0.2,0.519
U0.982Th0.018Be13,0.518
U0.982Th0.018Be13,0.517
Cd1,0.517
Cd1,0.515
Cd1,0.511
Cd1,0.51
Pb0.992Tl0.008Te1,0.51
Au1Ta4.3,0.51
U1Pt2.997Pd0.003,0.51
Ce1Pt3Si1,0.51
Fe0.000Mo1.000,0.51
Pt3U1,0.51
U1.02Ni2Al3,0.509
U0.983Th0.017Be13,0.508
Ru1,0.507
Pt3V1,0.5
Pt3U1,0.5
Fe0.412Zr0.588,0.5
Ba1,0.5
Sr0.925Ba0.075Ti1O3,0.5
Sr0.95Ba0.05Ti1O3,0.5
Sr0.7Ca0.3Ti1O3,0.5
Sr0.925Ca0.075Ti1O3,0.5
B1Mo1,0.5
Cr0.8Rh0.2,0.5
K0.27O3W1,0.5
Ce1Cu2Si1.98Ge0.02,0.5
Cr0.15Mo0.85,0.5
Ir0.82Mo0.18,0.5
Pd0.535V0.011Sb0.454,0.5
Sb1V3,0.5
U1Co1Ge1,0.5
Nb1Te2,0.5
Ta1Ir1Si1,0.495
La2Bi3Ag1S6O2,0.493
Th0.999U0.15,0.493
Ru1,0.49
Zr1,0.49
Bi1Co1,0.49
Lu1Rh5,0.49
Rh0.67Te0.33,0.49
Ti1,0.49
S2Ta1,0.49
Pt3U1,0.49
Mo1Te1.9Se0.1,0.48
Cr0.82Re0.18,0.48
Ce1Ni1Ge3,0.48
B12Lu1,0.48
Hg3Mg1,0.48
Hg1Mg1,0.48
Ir2La1,0.48
Al2Pt1,0.48
Ir0.7Os0.3,0.48
La0.9Pr0.1Se1,0.48
Be13U0.981Th0.019,0.48
Pt3U1,0.48
U1Co1Ge1,0.48
Ba1Ti2As0.2Sb1.8O1,0.48
Eu2Sr1Bi2S4F4,0.48
Eu2Sr1Bi2S4F4,0.478
Bi3Co1,0.476
Ru1,0.473
Ce1Ir1In4.946Hg0.054,0.47
Ce1Pt2.82Ni0.18Si1,0.47
Ce1Co1.67Rh0.33,0.47
O3Sr1Ti1,0.47
Y1Pd2Si2,0.47
Cu0.2Zn0.8Ir2S4,0.47
Ce1Ru0.1Co1.9,0.47
Os0.333Ru0.667,0.47
O0.86Ti1,0.47
Cu1Y1,0.46
In1N1,0.46
Sr2Ru0.999Ti0.001O4,0.46
As2Pd5,0.46
Ce1Co1.67Ni0.33,0.46
La1Pt2,0.46
Os1Ti1,0.46
As1Pd5,0.46
U0.955Th0.045Be13,0.46
Ir0.125Os0.375Rh0.5,0.46
Ce1Pt3Si1,0.46
Ce1Cu2Si2,0.46
Y1Ni1Ge3,0.46
K1Ni2S2,0.46
Ge3Nb5,0.46
Sr1Ni1Ge3,0.46
Mo1Te1.94Se0.06,0.451
Sr1Ni1Ge3,0.45
Ce1Pt3Si0.94Ge0.06,0.45
Cr3Ir1,0.45
Ce1Rh1Si3,0.45
U1Co1Ge1,0.45
B6La1,0.45
Ge0.92Ga0.08,0.45
Ce1Ge2Rh1,0.45
Ge3Nb5,0.45
Lu1Pt2In1,0.449
U0.85Ti0.15,0.447
La0.5Ce0.5Ru2,0.44
U1Pt2.997Pd0.003,0.44
Pt1Th1,0.44
As0.5In1Te0.5,0.44
Ni0.007Ru0.993,0.44
B12Lu1,0.44
Ce1Co1In4.85Sn0.15,0.435
Ce1Co1In4.925Cd0.075,0.43
Au0.865Sn0.135,0.43
Sr2Ru1O4,0.43
Ce1Ni1Ge3,0.43
Sr1Ti1O3,0.43
Ni0.5V0.16Zr0.34,0.43
Zr1Ni1.5V0.5,0.43
Ce1Pd2Si2,0.43
Ce1Rh2Si2,0.43
Ce1Ir1In5,0.43
Pt0.014Ru0.986,0.43
Au0.855Sn0.145,0.429
Pa1,0.423
Ce1Ir0.956Pt0.044In5,0.42
U1Co1Ge0.94Si0.06,0.42
Pd4Se1,0.42
Bi1Co1,0.42
Sn0.504Ge0.336In0.16Te1,0.42
U1Pt2.994Pd0.006,0.42
B12Lu1,0.42
W1F0.41O2.59,0.42
U1Co1Ge1,0.415
Lu1Pt1.6Pd0.4In1,0.415
U0.954Th0.046Be13,0.41
Bi1.1Nb1S3.1,0.41
Ce1Ir1In5,0.41
As2Mo1,0.41
Pd1Sn1,0.41
Pd2Sn1,0.41
Nb0.62Pt0.38,0.41
Ni1U6,0.41
Ir0.036Ru0.964,0.41
Ir0.85W0.15,0.41
W1F0.44O2.56,0.41
La1Pt2Ge2,0.4
Ce1Ir1In5,0.4
Au5Ba1,0.4
Ge1Pt1,0.4
Ir0.75Os0.25,0.4
La0.35Y0.65,0.4
Pt0.15Ta0.85,0.4
Ti1,0.4
Al1Au4,0.4
Au1In1,0.4
Cr0.6Ir0.4,0.4
U1Pt2.994Pd0.006,0.4
Ce2Co1In8,0.4
Ce1Cu2Si1.96Ge0.04,0.4
Co0.007Ru0.993,0.4
Pd0.015Ru0.985,0.4
Ir0.63Os0.27Rh0.1,0.4
La1Sb2,0.4
B12Lu1,0.4
Ce0.98Th0.02Pt3Si1,0.4
Sn0.576Pb0.384In0.04Te1,0.399
Y1Co2Ge2,0.395
Lu1Pt0.4Pd1.6In1,0.394
Ce1Pd2Si2,0.39
La2Ni1Ge3,0.39
Al1Os1,0.39
B12Sc1,0.39
C8K1,0.39
La1Pd2Si2,0.39
P4W14O50,0.39
Ti1,0.385
Cd1.000Mn0.000,0.38
Al0.14Au0.86,0.38
C1,0.38
Ga1Zr2,0.38
Sr1Ti1O3,0.38
Rh1V3,0.38
U0.948Th0.052Be13,0.38
Ce1Rh2Si2,0.38
Ce1Ir1In5,0.38
La0.997Ce0.003Rh3B2,0.38
Cr0.3Ru0.7,0.38
Rh0.04Ru0.96,0.37
W1F0.45O2.55,0.37
Ce1Pt3.03Si0.97,0.37
Hf0.99Zr0.01,0.37
Ir1Th1,0.37
Pt1Sn1,0.37
Ce1Pd2Si2,0.37
Ce1Cu2Si1.96Ge0.04,0.37
Cr0.39V0.61,0.37
La0.7Pr0.3Pb3,0.37
Ir0.4Os0.3Rh0.3,0.37
C1,0.36
Au1Lu1,0.36
Rh1Th1,0.36
Ni0.031Ru0.969,0.36
Au0.462Ge0.405Yb0.133,0.35
La1Al1O3,0.35
Ce1Rh0.1Ir0.9In5,0.35
Cu0.589Zr0.411,0.35
Ni1U6,0.35
Al2Zr1,0.35
Fe0.02Sc0.05Zr0.93,0.35
Ni0.22V0.78,0.35
Co1Lu3,0.35
Co0.3Sc0.7,0.35
P1Pd3,0.35
U1Pt2.991Pd0.009,0.35
Ce1Ru0.2Co1.8,0.35
Ir0.165Rh0.165Os0.67,0.35
U1Co1Ge1,0.345
Eu1Bi1S2F1,0.345
Si2Ta1,0.344
Pd0.72W0.28,0.34
U0.94Th0.06Be13,0.34
Sc1,0.34
Au5Ca1,0.34
Co0.28Y0.72,0.34
Co1Y3,0.34
Ir0.73Os0.17Ru0.1,0.34
Ag3.3Al1,0.34
Cr0.1Ru0.9,0.34
U1Pt2.991Pd0.009,0.34
Ir0.9Re0.1,0.34
Si1,0.34
Ti1,0.33
B0.057Si0.943,0.33
Sr1Ti1O3,0.33
U1Pd2Al2.4Ga0.6,0.325
Au0.875Sn0.125,0.32
Au0.635Ge0.205Yb0.16,0.32
Sc0.01Zr0.99,0.32
Au0.4Ge0.6,0.32
Cs1V6S8,0.32
Co0.015Ru0.985,0.32
Pr0.342Th0.658,0.311
Ce3Pt1In11,0.31
Ge0.937Te1,0.31
As1Nb3,0.31
Co0.001Mo0.999,0.304
Ce1Pt3Si0.9Ge0.1,0.3
Th0.998U0.2,0.3
Y1Ba1.5La0.5Cu3O7,0.3
Ag7F1O8,0.3
Sr1Ti1O3,0.3
Al2La1,0.3
Cu3Na2S3,0.3
Mo1Te2,0.3
Sr1Ti0.97Zr0.03O3,0.3
Eu1Bi1S2F1,0.3
Mo1Te2,0.296
La1Ti2Al20,0.29
La1Al1O3,0.29
N0.3S0.7,0.29
Zn2Zr1,0.29
Pt0.06Ru0.94,0.29
Ir0.9Mo0.1,0.288
Pr0.65Ce0.35Pt4Ge12,0.28
U1Co1Ge0.92Si0.08,0.28
Mg7Zn3,0.28
Ir0.14Ru0.86,0.28
Ir0.56Os0.24Rh0.2,0.28
Au0.8In0.2,0.28
Pr0.25La0.75Ir2Zn20,0.27
Ce1Co0.83Pt0.17In5,0.27
U1,0.27
Ce1Cu2Si1.92Ge0.08,0.27
Ce1Ru0.3Co1.7,0.27
Co0.022Ru0.978,0.27
Rh0.105Ru0.895,0.27
Ir0.49Os0.21Rh0.3,0.27
Sr1Ti1O3,0.264
Ta1Se0.7Te1.3,0.262
Au0.9Ga0.1,0.26
Al0.998Mn0.002,0.26
N0.3S0.7,0.26
N1S1,0.26
Ce1Rh2Si2,0.26
Ir0.85V0.15,0.26
S1N1,0.258
U1Rh1Ge1,0.25
Ge2U1,0.25
B1Ta1.5W0.5,0.25
As1Nb3,0.25
Ir0.66Mo0.34,0.25
Co0.027Ru0.973,0.25
Ir0.56Re0.14Rh0.3,0.25
Ge1Te1,0.25
La4Sb3,0.246
U1Rh1Ge1,0.246
Ge0.95Te1,0.24
Ba6Ge25,0.24
Cd0.96Mg0.04,0.24
In3Lu1,0.24
U1Pt2.988Pd0.012,0.24
In3Lu1,0.235
Cu0.81Ge0.19,0.23
S1N1,0.23
Ce1Ni2Ge2,0.23
Pb3Yb1,0.23
Ir0.9W0.1,0.23
Pb3Yb1,0.222
U1Ru1.99Re0.01Si2,0.22
U1Rh1Ge1,0.22
Ce2Ni3Ge5,0.22
Au1In2,0.22
Ce1Ni2Ge2,0.22
Ce1Rh0.65Ir0.35In5,0.22
Co0.001Mo0.999,0.22
Ir0.93Re0.07,0.22
Ir0.135Rh0.135Os0.73,0.22
Ir0.6Os0.2Rh0.2,0.22
C8K1H0.19,0.22
Ta1Se2,0.214
Be13U1,0.214
Sr1Ti1O3,0.213
Sn1Te1,0.21
Pt0.73W0.27,0.21
Ga1Hf2,0.21
Ge1Te1,0.21
Ce1Cu2Si1.8Ge0.2,0.21
Th1In2.25Sn0.75,0.21
Al0.5Ge0.5Th2,0.21
Pt0.113Ru0.887,0.21
Ir0.22Ru0.78,0.21
Ir0.1Os0.3Rh0.6,0.21
Re0.2Ta0.8,0.207
Au0.885Sn0.115,0.205
Sn1Te1,0.2
S1N1,0.2
La1.85Sr0.15Cu0.982Fe0.018O4,0.2
Ce1Ni2Ge2,0.2
U1,0.2
Sr1Ti1O3,0.2
Ce1Cu2Si1.9Ge0.1,0.2
Ce1In3,0.2
Ce1Cu2Si1.88Ge0.12,0.2
Co0.034Ru0.964,0.2
Ni0.08Ru0.92,0.2
As1,0.2
Cu6Th1,0.2
Fe0.6Ni0.4Zr2,0.2
Ta1Se2,0.2
La1Ru2Zn20,0.2
In1N1,0.2
La1Fe0.985Zn0.015As1F0.08O0.9,0.2
Sm1Fe1As1H0.03O0.97,0.195
Pr1Ti2Al20,0.194
Ca24Al28O66,0.19
Ce1Ir1In4.875Cd0.125,0.19
Ce1Cu2Si1.8Ge0.2,0.19
In3Rh1,0.189
Pr1Ti2Al20,0.186
Sn0.97Te1,0.186
As2Cd3,0.185
Cd0.8Mg0.2,0.184
As2Cd3,0.18
Cu0.845Sb0.155,0.18
Rh0.2Ru0.8,0.18
Ir0.32Ru0.68,0.18
Ir0.43Ru0.57,0.18
Rh0.6Ru0.4Se2,0.175
Ir0.71Ru0.29,0.175
Cu0.815Ge0.185,0.174
Mo1Te2,0.172
Sn1Te1,0.172
Ge1Te1,0.172
Ir0.925Nb0.075,0.171
Ge1Te1,0.17
Ge0.963Te1,0.17
Fe1Zr2,0.17
Fe1Zr2,0.168
Ce1In3,0.168
Cr3Ir1,0.168
Ir0.953Mo0.047,0.168
Au0.92Ga0.08,0.168
Sn1Te1,0.167
Sn0.965Te1,0.165
Sn0.966Te1,0.165
Fe0.018Ru0.982,0.162
Sn0.975Te1,0.16
Ir0.953W0.047,0.16
Cd0.75Mg0.25,0.16
Hg1Mg3,0.16
Ir0.825Ru0.1Os0.075,0.16
Se2Ta1,0.16
Ir0.725Os0.175Rh0.1,0.158
U1Ni1.95Al3.05,0.158
Al0.02Au0.92Ga0.06,0.155
Bi1.5La4Sb1.5,0.155
Bi2Pt1,0.155
Cr0.25Mo0.75,0.155
Bi3La4,0.153
Sn0.97Te1,0.152
U1Co1Ge0.9Si0.1,0.15
C8.1K1,0.15
Ag7B4F4O8,0.15
Ce0.985La0.015Pt3Si1,0.15
Ag7F4O8B1,0.15
Ce1In3,0.15
Ce1Cu2Si1.8Ge0.2,0.15
Ir0.94Ta0.06,0.15
Cr3Ir1,0.15
Ta1Se2,0.15
Ag7B1F4O8,0.147
La1V2Al20,0.145
Ir0.965V0.035,0.145
C8K1,0.145
Cd0.86Mg0.14,0.145
Ru3U1,0.142
Cu0.825Ge0.175,0.142
Ir0.96Re0.04,0.141
Ir0.765Ru0.235,0.14
Tl1Bi1Te2,0.14
Se2Ta1,0.14
Cu1Rh1.5Sn0.5Se4,0.14
Ir0.1Rh0.1Os0.8,0.14
Ir1U1,0.14
Ce1Pt1Si2,0.14
Pr1Ti2Al20,0.138
Zr1As1.58Se0.39,0.138
Cd0.9Mg0.1,0.137
Ir0.965Nb0.035,0.135
Au0.92Ga0.068In0.012,0.135
C8Cs1,0.134
Be13Th1,0.133
C8K1,0.133
Sr1Ti1O3,0.13
Ir0.973Mo0.027,0.13
Se2Ta1,0.13
Ir0.75Mo0.25,0.13
Ir0.8Ru0.2,0.13
Ir0.46Re0.115Rh0.425,0.13
Au0.92Ga0.06In0.02,0.13
La3Sb3Y1,0.128
Cu0.82Ge0.18,0.128
Hf1,0.127
Hf1,0.126
Ir0.97Ta0.03,0.125
Ag0.667Al0.333,0.125
Mo2Zr1,0.125
Ir0.973W0.027,0.125
Ir0.925Ta0.075,0.12
Sn0.976Te1,0.12
Ce1Cu2Si1.8Ge0.2,0.12
O3Sr1Ti1,0.12
Ir0.71Mo0.29,0.117
Pt1Sb1S1,0.116
Cu0.84Ge0.16,0.116
Ir0.99Ta0.01,0.115
Ag0.828Ga0.172,0.115
Ir0.98V0.02,0.113
Ir0.98Nb0.02,0.112
Ir1,0.11
Ir0.95Re0.02,0.11
Mo0.5V0.5,0.11
Sc0.05Zr0.95,0.11
Rh0.32Ru0.68,0.11
Ir0.99V0.01,0.11
Ir0.925Ru0.075,0.11
Ir0.845Ru0.155,0.11
Ag0.7Al0.3,0.108
Ce1Rh1In5,0.107
Sn0.97As0.005Te0.995,0.107
Ir0.987Mo0.013,0.106
Ir0.987W0.013,0.105
Ag0.625Al0.375,0.105
Cd0.7Mg0.3,0.104
Ir0.89Ru0.11,0.102
Sn1Te1,0.101
Ir0.99Nb0.01,0.1
Al0.04Au0.92Ga0.04,0.1
La0.15Y0.85,0.1
Ge0.976Te1,0.1
Ca0.31Sr0.7Ti1O3,0.1
Ba0.1Sr0.9Ti1O3,0.1
Ce1Cu2Si1.7Ge0.3,0.1
Cr0.48V0.52,0.1
Mo0.33Rh0.67,0.1
Ir0.1Os0.25Rh0.65,0.1
Ag0.65Al0.35,0.1
Sn1Te1,0.1
Ce1Ni2B2C1,0.1
Mo1Te2,0.1
La0.98Ce0.02Ni1C2,0.1
Mo1Te2,0.096
La0.98Ce0.02Ni1C2,0.095
Ir0.765Os0.085Rh0.15,0.095
Al2Au1,0.095
Cr0.4Mo0.6,0.095
Ir0.406Os0.174Rh0.42,0.095
Ir0.087Rh0.087Os0.825,0.095
Ir0.55Os0.15Rh0.3,0.093
Mo0.8Nb0.2,0.092
Pr0.73La0.27Ir2Zn20,0.09
Sn0.98Te1,0.09
Al1Th2,0.09
Os0.97Rh0.03,0.09
Co0.07Ru0.93,0.09
Al0.06Au0.92Ga0.02,0.09
Ag0.795Sn0.205,0.088
Ag0.775Sn0.225,0.088
Al0.08Au0.92,0.087
Ag0.6Al0.4,0.085
Sn0.97Te1,0.084
Cu2Sb1,0.082
Cu0.85Ge0.15,0.08
Pd1V3,0.08
Sc0.07Zr0.93,0.08
Ir0.4Re0.1Rh0.5,0.08
Ge1Te1,0.08
Pd1V3,0.077
Yb1Al1B4,0.076
Au0.9In0.1,0.076
Al0.07Au0.92In0.01,0.075
Hf1Mo2,0.074
Ir0.95Rh0.05,0.073
La1Rh2Si2,0.072
Sn0.97As0.01Te0.99,0.072
Cr0.75Rh0.25,0.071
Cu0.83Ge0.17,0.07
Ge0.976Te1,0.07
Cu0.81Sb0.19,0.07
Hf1Mo2,0.07
Cr3Rh1,0.07
Pr1Ir2Zn20,0.07
Pr0.96La0.04Ir2Zn20,0.069
La1Os2Zn20,0.068
Ir0.96Pd0.04,0.068
Au0.92Ga0.04In0.04,0.068
Sn1Te1,0.067
Sn0.97As0.005Te0.995,0.067
Al0.05Au0.92In0.03,0.067
Cu0.844Sb0.156,0.066
Ir0.9Ta0.1,0.066
Ag2I1,0.066
Ir0.9Pt0.1,0.066
Ag2F1,0.065
Ag0.82Sn0.18,0.065
Hf1Mo2,0.064
Sn1Te1,0.064
Au0.9In0.1,0.064
Ir0.07Rh0.07Os0.86,0.062
Ir0.8Ru0.05Rh0.15,0.062
Au0.9In0.1,0.061
Al0.06Au0.92In0.02,0.061
Pb0.996Tl0.004Te1,0.06
Al0.056Au0.92In0.024,0.06
Ir0.9Nb0.1,0.06
Ir0.89Rh0.11,0.06
Sn1Te1,0.06
Ag0.815Sn0.185,0.06
Pr1Os2Zn20,0.058
Pr1Rh2Zn20,0.058
Cu0.86Si0.14,0.056
Sn0.97As0.017Te0.983,0.055
Al0.04Au0.92In0.04,0.055
Ir0.75Os0.05Rh0.2,0.055
Ir0.2Ru0.3Rh0.5,0.054
Ag0.825Sn0.175,0.052