formula,Tc,type
Rh3.52Si0.58U3.54,2.0,original
Ir3.36Si0.58U3.54,2.0,original
Ge1.57Ru5.45Th3.56,2.0,original
Ge1.57Rh3.52Th3.56,2.0,original
Ge1.57Pd3.98Th3.56,2.0,original
Ge1.57Os6.17Th3.56,2.0,original
Ge1.57Pt4.72Th3.56,2.0,original
Ge1.57Rh3.52U3.54,2.0,original
Ge1.57Ir3.36U3.54,2.0,original
Al20.94La1.11Ta10.6,2.0,original
As1.47Ba0.64Ni4.79,2.0,original
Ir3.36Y2.04,2.0,original
Sn0.61Te2.37,2.0,original
Cu0.45Ni6.04Zr30.67,2.0,original
Ce5.81Rh1.7Si0.92,2.0,original
C0.24Pt2.05U7.17,2.0,original
Ba0.64Nb2.37S5.42,2.0,original
Ga1.1,2.0,original
Rh0.51V0.46,2.0,original
Ag4.11Bi9.92Pb12.86Se8.51,2.0,original
La0.83Os12.44Pr0.13Sb14.68,2.0,original
Sn0.75Te2.4,2.0,original
Rh8.99Th3.56,2.0,original
Rh5.35Y2.04,2.0,original
Ru2.65Ti4.19,2.0,original
Co5.05Fe2.12Th25.48,2.0,original
Th3.12Tm0.88,2.0,original
In1.36Te2.37,2.0,original
In3.49Sb1.15Te4.87,2.0,original
Ti4.19,2.0,original
Cu0.13Ir3.02Pt0.34Se2.38,2.0,original
La1.11Mg6.46,2.0,original
Nb3.63Os3.03,2.0,original
Fe2.85Ni1.23Th25.48,2.0,original
Os8.68Pr0.75Ru3.21Sb14.68,2.0,original
La1.11Sn0.56Tl10.1,2.0,original
Al0.95Li0.12,2.0,original
Ag29.09N5.82O2.43,2.0,original
Ag29.09F1.19N4.34O2.22,2.0,original
La1.11Zn2.02,2.0,original
Os1.15Pr0.75Ru9.92Sb14.68,2.0,original
In1.68Pd3.98Y2.04,2.0,original
Yb9.91,2.0,original
Cr0.32Os0.93,2.0,original
Ti3.37Zr3.01,2.0,original
Ir3.36Sc4.95,2.0,original
In2.59Sn1.22Th3.56,2.0,original
Al20.94Sc4.95V1.53,2.0,original
La1.11Se0.54,2.0,original
Te2.37Y2.04,2.0,original
Al2.03Cu0.13,2.0,original
Ce5.81Co4.41In8.74,2.0,original
Se1.15Ti4.1,2.0,original
Ce1.31Ge9.94Pr0.55Pt9.58,2.0,original
Ti0.72Zr2.93,2.0,original
Nd2.09Os12.44Pr0.4Sb14.68,2.0,original
C0.24La1.06Ni2.3Sm0.16,2.0,original
Cd23.68O1.31Re2.92,1.0,original
Ba1.72Cu0.13Hg7.24O0.48,1.0,original
Cd23.68O1.34Re2.92,1.0,original
Ca2.29K5.32Nb3.63O2.15,1.0,original
O0.48Ru2.65Sr3.22,1.0,original
U3.54,1.0,original
Fe0.28U2.04,1.0,original
La1.11Os12.44Sb14.68,1.0,original
Be1.92Ta15.96,1.0,original
Bi1.47Pd1.94Se0.54,1.0,original
Bi4.85Te2.37,1.0,original
Zr3.31,1.0,original
Hf9.88Mo2.35,1.0,original
La0.37Y0.89,1.0,original
Ti4.19,1.0,original
Pd1.94Sb1.15Se0.54,1.0,original
Pt2.29Ta5.24,1.0,original
Ru0.97V0.42,1.0,original
P5.5Pd14.19,1.0,original
Pt0.59Ta3.63,1.0,original
Bi4.85Fe1.02,1.0,original
Bi6.54Mg3.17,1.0,original
W5.25,1.0,original
Er34.05Rh10.81Sn16.3,1.0,original
Al3.08Ni4.79U3.54,1.0,original
Dy5.18Ir6.85Lu15.14Si3.27,1.0,original
In2.59Pb4.75Y2.04,1.0,original
B0.95Ca1.05Pd6.02,1.0,original
Co4.41Ta9.26Zr0.81,1.0,original
Cu0.12Rh3.52S4.3,1.0,original
Hf3.3Mo0.67,1.0,original
La1.11N5.82,1.0,original
Ba0.64P3.64Rh3.52,1.0,original
Bi1.47Lu3.29Pt2.29,1.0,original
Ge2.41Pt2.29Sr1.46,1.0,original
La1.11Ni2.3Sb2.38,1.0,original
As0.65F1.35Fe0.96La1.11,1.0,original
Fe2.3Ge1.57Y2.04,1.0,original
In1.68Lu3.29Pd2.02Pt2.19,1.0,original
Ce5.81Hg0.22In8.84Ir1.62,1.0,original
C0.59Hg7.24Rb5.68,1.0,original
Ge2.41U18.04,1.0,original
Cd0.54Ce5.81In8.83Ir1.62,1.0,original
Be12.78U3.54,1.0,original
Mo1.1Te4.42,1.0,original
Fe0.44U1.56,1.0,original
Ir0.75Os1.46,1.0,original
Pt7.15Th25.48,1.0,original
U3.47,1.0,original
Fe3.58Lu0.98Si1.59Y3.67,1.0,original
Bi1.47Pt2.29Y2.04,1.0,original
Ba3.88Nb12.5O7.73Sr3.22,1.0,original
Pr0.75Ru11.04Sb14.68,1.0,original
Er35.29Rh10.81Sn16.16,1.0,original
Ce5.81In8.92Ir0.75Rh0.79,1.0,original
Os1.78Pr0.75Ru9.36Sb14.68,1.0,original
Th2.69Tm1.8,1.0,original
As1.47La1.11Pd3.98,1.0,original
Ag4.11La1.11,1.0,original
Ge0.73Rh1.7,1.0,original
Bi3.16Pd6.02Se1.15,1.0,original
In5.3Y2.04,1.0,original
Ge1.57La1.11Pd3.98,1.0,original
La3.98Ni9.77Si1.26,1.0,original
Ba4.96Nb12.5O7.73Sr1.46,1.0,original
P3.64Pd3.98Y2.04,1.0,original
Be12.82U3.54,1.0,original
Ce5.81In8.87Ir1.62,1.0,original
Pb3.08Te2.37,1.0,original
Se1.15Ti4.19,1.0,original
In1.02S8.78V4.7,1.0,original
Th3.19,1.0,original
Ru5.45Si0.58U3.54,1.0,original
Ba0.64Sb2.38Ti8.52,1.0,original
Ge1.62La1.11Pt4.57,1.0,original
Ba0.64Nb2.37S5.42,1.0,original
Al3.08Yb9.91,1.0,original
Ce5.81In8.92Ir0.67Rh0.88,1.0,original
Os1.65Re0.6,1.0,original
Eu6.12Mo7.78S8.78,1.0,original
Nb3.63Os3.03,1.0,original
Nb0.64Pd0.22,1.0,original
Al2.03La1.1Tb0.13,1.0,original
Mn14.15P1.78,1.0,original
Sn0.76Te2.37,1.0,original
Al2.03La1.11,1.0,original
Ce5.81Co4.41In8.71,1.0,original
Mg3.17Zn2.02,1.0,original
Pd1.94Si0.25,1.0,original
Ce0.71Cu0.13O0.49Pr1.41,1.0,original
Re2.92Sc4.95,1.0,original
Er15.39Fe3.58Si1.59,1.0,original
Ir1.62Sn3.43,1.0,original
Au7.67Zr11.4,1.0,original
Rh0.31Sc3.75,1.0,original
Sn0.78Zr15.26,1.0,original
Mo1.1,1.0,original
Zr3.7,1.0,original
As1.47Pd3.98Sr1.46,1.0,original
Ce4.61Co4.41In8.92Yb1.91,1.0,original
Ce5.81Rh1.7Si0.92,1.0,original
Ce5.81In8.92Ir0.93Rh0.6,1.0,original
Au7.67Be0.93,1.0,original
Co2.14Ni1.06Ta10.6,1.0,original
Mo0.35Rh0.97,1.0,original
PdSb0.47,1.0,original
La1.09Tb0.11,1.0,original
La0.83Os12.44Pr0.13Sb14.68,1.0,original
In1.68Lu3.29Pd2.51Pt1.61,1.0,original
Cu0.12La2.33O0.48,1.0,original
Be0.62Ti0.2Zr0.33,1.0,original
As1.47W5.25,1.0,original
Ni2.3Ta10.6,1.0,original
Os0.13W4.85,1.0,original
Pt4.72Y6.83,1.0,original
Pt4.72Y18.8,1.0,original
Al0.98Rh1.7Y2.04,1.0,original
Cu0.13Rh3.51S4.3,1.0,original
Th3.56,1.0,original
Bi1.47La1.11Pt2.29,1.0,original
,1.0,original
Al2.03Ce5.81Pd10.1,1.0,original
Cu0.13La1.11Sb2.38,1.0,original
Ir1.62La1.11Si0.92,1.0,original
Ce5.81In8.92Ir1.6,1.0,original
Ge1.57Ni4.79Sr1.46,1.0,original
Mo1.1Te4.47,1.0,original
Nd1.84Os12.44Pr0.44Sb14.68,1.0,original
In1.68La2.55Ni4.79,1.0,original
K2.32O0.2W5.25,1.0,original
Ag0.64Al0.8,1.0,original
Be0.86,1.0,original
Mg6.46Zn22.5,1.0,original
Pt2.29Si0.25,1.0,original
Ta4.17W,1.0,original
Ce5.81Co3.5In8.92Ni0.31,1.0,original
Ni2.3Si0.25Th3.56,1.0,original
Bi4.85Zn2.02,1.0,original
Ge5.76Ir5.11,1.0,original
Hf19.86Ni2.3,1.0,original
Th3.56Tl13.51,1.0,original
Ce5.81Co8.73,1.0,original
Ga2.26Ge1.57U3.54,1.0,original
Al3.08Mg6.46,1.0,original
Bi3.16Eu17.19F20.82S4.3Sr0.58,1.0,original
Zn2.02,1.0,original
C0.59Hg7.24K5.32,1.0,original
Lu3.29Ru5.45,1.0,original
Ni2.3U21.67,1.0,original
Ce5.81Co8.27,1.0,original
Ce5.06Co4.41In8.92,1.0,original
Al45.1Nb4.9Y14.01,1.0,original
Ag16.6Ge0.73,1.0,original
Al0.57Mg1.17,1.0,original
U3.48,1.0,original
Ag29.09F1.19N4.34O2.22,1.0,original
In1.68Te1.55,1.0,original
Hf9.78,1.0,original
Al3.08La1.11Pd3.98,1.0,original
Bi3.16Rh5.35Se1.15,1.0,original
Be0.85,1.0,original
Ir1.62Lu6.67,1.0,original
La1.11S0.95,1.0,original
Al2.03Mg6.46,1.0,original
Ce5.81Co8.96,1.0,original
Ba3.88Ge20.83Na7.87,1.0,original
Os3.03Pr0.75Ru8.24Sb14.68,1.0,original
Sn0.75Te2.37,1.0,original
P1.78W5.25,1.0,original
Mo1.1Te4.57,1.0,original
Cr0.34Ir0.37,1.0,original
Cr0.12Ir1.14,1.0,original
Al3.08Pd4.02U3.54,1.0,original
Ge1.6La1.11Pt4.65,1.0,original
In1.68Lu3.29Pd2.76Pt1.32,1.0,original
Co4.41Ta10.6,1.0,original
Pt7.15Y16.4,1.0,original
Ce5.81In8.92Ir0.84Rh0.7,1.0,original
Ge1.54La1.11Pd3.98,1.0,original
Pb3.07Te2.37,1.0,original
Os3.66Pr0.75Ru7.68Sb14.68,1.0,original
Os6.17Pr0.75Ru5.45Sb14.68,1.0,original
Ce5.81Pt7.15Si0.25,1.0,original
S2.07Ta5.24,1.0,original
Sb1.15V2.32,1.0,original
Ge1.57U3.54,1.0,original
B0.77Ca1.05Pd6.02,1.0,original
La1.01Tl13.51,1.0,original
La0.76Pb9.62Pr0.17,1.0,original
Os2.09Re0.39,1.0,original
Co4.41Ge0.73U3.54,1.0,original
C0.94I41.11,1.0,original
Ce5.81Cu0.76Si0.58,1.0,original
K5.32Ni4.79Se1.15,1.0,original
As0.65Ca0.18Fe1.02O0.2Sr2.69V0.73,1.0,original
Ce5.81In8.9Ir1.62,1.0,original
Bi3.16Ni7.28S2.07,1.0,original
B2.29Be0.93,1.0,original
Am59.14,1.0,original
Ti4.17,1.0,original
Bi0.63Sn0.34,1.0,original
Se0.97Ta5.24Te0.63,1.0,original
Zr1.81,1.0,original
Co1.7U2.08,1.0,original
Se0.39Y2.04,1.0,original
Zn2.01,1.0,original
Ir5.11Lu23.62,1.0,original
Ir1.62Sn1.66,1.0,original
Ir1.62Zn4.06,1.0,original
Ag2.03Al0.45Th7.22,1.0,original
Ir1.47,1.0,original
Ce4.91Co4.41In8.92,1.0,original
U3.33,1.0,original
Bi1.47K3.52O0.2,1.0,original
Cr0.4Ir0.17,1.0,original
Ag0.78In1.32Te2.37,1.0,original
Al0.98La3.98,1.0,original
Ce5.81Co4.41Hg0.34In8.65,1.0,original
Zn2,1.0,original
As1.39Ba0.64Ni4.79,1.0,original
Bi1.61S3.28Ta5.24,1.0,original
Be0.89,1.0,original
Ga1.1Mo3.59,1.0,original
Mg6.46Zn6.11,1.0,original
Mo0.22V0.5,1.0,original
Pb3.13Zr11.4,1.0,original
Pd6.02Te2.37,1.0,original
Pt0.88Y1.04,1.0,original
Cr0.33Ir0.41,1.0,original
Al2.61Ga0.47Pd3.98U3.54,1.0,original
S8.78V4.7,1.0,original
Os4.91Pr0.75Ru6.57Sb14.68,1.0,original
La2.91Pr0.55Se2.38,1.0,original
Bi1.47La2.55,1.0,original
Ce5.87Pt7.15Si0.25,1.0,original
Ce5.81Co1.46Ir1.01Si0.92,1.0,original
Al3.08Th3.56,1.0,original
Cr0.39Ir0.2,1.0,original
Rh1.68,1.0,original
Rh1.66,1.0,original
Pd1.94Th7.22,1.0,original
Al3.08Tl4.41,1.0,original
B1.62Dy10.45Ni4.79,1.0,original
In3.95La1.11Sn0.56,1.0,original
Pr0.11Th2.91,1.0,original
Re0.17Ta4.44,1.0,original
La2.55Sb1.15,1.0,original
As0.65Rh0.13Ru2.25,1.0,original
B0.73Pt7.15Th3.56,1.0,original
La1.11P3.64Pd3.98,1.0,original
Al45.1Mo4.84Y14.01,1.0,original
Ce5.81Co4.41Ge2.41,1.0,original
Pt0.22U3,1.0,original
Zr1.43,1.0,original
B5.18Th3.56,1.0,original
Au7.67V2.32,1.0,original
S8.78Tl1.05V4.7,1.0,original
Al0.98Hf9.88Ni4.79,1.0,original
Ce4.79Co4.41In8.92Nd1.84,1.0,original
Nb1.1Te4.87,1.0,original
Ge3.25La3.98Ni9.77,1.0,original
Ce4.79Co4.41In8.92Nd0.69,1.0,original
Al6.23Re1.43,1.0,original
Mo1.1S0.14Te4.17,1.0,original
Ce5.81In8.92Ir1.59,1.0,original
Bi3.16Ni7.28Se1.15,1.0,original
Al0.98Zr11.4,1.0,original
Ti3.75,1.0,original
Ir0.93Os1.15,1.0,original
Os2.44Re0.23,1.0,original
Zr3.51,1.0,original
Ce2.21La0.54Ru5.45,1.0,original
Th3.56U0.28,1.0,original
Ce5.81Pt7.08Si0.25,1.0,original
Be20.76Ni12.26,1.0,original
Sb1.15Ta15.96,1.0,original
B2.51Be1.01,1.0,original
Co4.41Ti4.19,1.0,original
K5.32S8.78V4.7,1.0,original
Mo1.02,1.0,original
Ge2.41Rh1.7Sr1.46,1.0,original
Pb1.12Sn0.4Te2.37,1.0,original
Al0.98Au30.92,1.0,original
In5.3La1.11,1.0,original
In1.68Pd1.94,1.0,original
Pt4.72Sr1.46,1.0,original
Bi1.47Mg3.17,1.0,original
Au38.67Sn0.78,1.0,original
In1.68Pb3.13,1.0,original
Ce5.81Cu0.8Si0.58,1.0,original
Ti3.96,1.0,original
Os2.69Re0.11,1.0,original
La1.04Se0.54,1.0,original
Th3.49,1.0,original
Al0.98,1.0,original
Pd18.27Se1.15,1.0,original
Sb1.15,1.0,original
Ce11.8In14.35Pd1.94,1.0,original
Ge9.94Nd4.84Pt9.58,1.0,original
In3.95Sn0.56Y2.04,1.0,original
Th3.38,1.0,original
Nb6.17Si0.92,1.0,original
Al20.94V1.53Y2.04,1.0,original
Ge1.57La1.11Ni4.79,1.0,original
U3.36,1.0,original
Ge7.85Pr0.75Pt9.58Sb2.99,1.0,original
Sn0.57Te2.37,1.0,original
As1.47Ba0.64Ni4.79,1.0,original
As0.65Rh0.64Ru1.47,1.0,original
Ba0.64Ge0.73Ni4.79P1.78,1.0,original
Au3.47Ge0.25Yb1.05,1.0,original
Al45.1Ta21.32Y14.01,1.0,original
Cd0.18Zn1.97,1.0,original
Os3.03,1.0,original
Ce5.81In8.92Ir1.28Rh0.24,1.0,original
Th7.22Zn2.02,1.0,original
Lu3.29Pd3.98Si0.58,1.0,original
In1.23La1.11Sn1.88,1.0,original
Th2.22Tm2.8,1.0,original
Be12.82U3.52,1.0,original
In1.68Lu3.29Pd1.53Pt2.78,1.0,original
O0.2Sr1.46Ti4.19,1.0,original
Ce3.05La0.34Ru5.45,1.0,original
Co4.41Ge0.72U3.54,1.0,original
Be12.82U3.51,1.0,original
Au1.7V0.55,1.0,original
Pd13.57Se0.54,1.0,original
Pd12.14Se0.54,1.0,original
Ir1.28Re0.24,1.0,original
As1.47Ni4.79Sr1.46,1.0,original
Th3.56U0.38,1.0,original
Au4.88Yb1.31,1.0,original
Ce11.8In14.35Rh1.7,1.0,original
Al2.09Cu0.13,1.0,original
Rh1.7Y6.83,1.0,original
Ti4.06,1.0,original
Rb5.68S8.78V4.7,1.0,original
Ca1.05Pb9.62,1.0,original
U3.43,1.0,original
Ag1.77Hg4.02,1.0,original
Pd6.02Sn1.66,1.0,original
Ce5.81Cu0.76Ge1.57,1.0,original
Ce5.81In8.92Ir1.19Rh0.33,1.0,original
Ce5.81Co2.14In8.92Ir0.75,1.0,original
Bi4.85La6.85,1.0,original
Bi1.47,1.0,original
Al3.08Pd3.98U3.25,1.0,original
As1.45Ba0.64Ni4.79,1.0,original
Ce5.81Pt7.15Si0.24,1.0,original
Cd2.32Zn1.61,1.0,original
Be12.82U3.43,1.0,original
Ce5.81Co0.77Ir1.28Si0.92,1.0,original
B1.62Nb1.1,1.0,original
Ce5.81Cu1.1Si0.58,1.0,original
Ce5.81In8.92Ir0.58Rh0.97,1.0,original
Ce5.81Cu0.73Si0.59,1.0,original
Rh1.15Ru0.69Se1.15,1.0,original
La1.1,1.0,original
Be12.82Lu3.29,1.0,original
Ge1.57Pd3.98Th3.56,1.0,original
Ir0.84Re0.17,1.0,original
Al3.11Pd3.98U3.54,1.0,original
Al20.94Pr0.75Ti8.52,1.0,original
O0.48Ru2.64Sr3.22,1.0,original
Zn4.06Zr3.7,1.0,original
Co2.64U1.33,1.0,original
As0.65Pd3.98,1.0,original
Au7.67In1.68,1.0,original
Mo0.35Nb0.59,1.0,original
Rh1.7Sn1.66,1.0,original
Ce5.96Cu0.76Si0.58,1.0,original
In3.95Pb2.32Y2.04,1.0,original
Lu3.29,1.0,original
Ir1.14Re0.21,1.0,original
La1.11Pt7.15Si0.25,1.0,original
Be0.93,1.0,original
Ir3.36La1.11Zn40.94,1.0,original
Nd2.34Os12.44Pr0.36Sb14.68,1.0,original
Ca2.29In1.68N5.82,1.0,original
Ba0.64Pd0.92Si0.42,1.0,original
Pd3.98Sb2.38Sr1.46,1.0,original
Al20.94Lu3.29V1.53,1.0,original
Pt2.29Te2.37,1.0,original
Cr0.31Ir0.49,1.0,original
La1.11Ni2.3Sn0.78,1.0,original
Be12.82U3.46,1.0,original
Au6.39,1.0,original
Ce4.91Co4.41In8.92Sm0.92,1.0,original
Os2.72Ru0.13,1.0,original
Be12.82U3.45,1.0,original
Al0.98Mo3.59,1.0,original
As0.65Rh1.7,1.0,original
Au7.67Sb2.38,1.0,original
Be0.83,1.0,original
Pt2.29Ti12.85,1.0,original
Th3.47,1.0,original
Ce5.75Pt7.15Si0.25,1.0,original
Be0.88,1.0,original
Pt7.15U3.54,1.0,original
Cu0.13Rh2.79Se2.38Sn0.25,1.0,original
Ge0.73Lu3.29Sn0.78,1.0,original
Os1.98Ru0.78,1.0,original
Be0.78,1.0,original
Co4.41Hf19.86,1.0,original
Lu3.29Se0.54,1.0,original
Rh8.99Y2.04,1.0,original
Na1.06O0.2W5.25,1.0,original
Be12.82U3.41,1.0,original
Ce5.81Pt7.15Si0.23,1.0,original
Ce5.81Co4.41In8.67,1.0,original
O0.2Sr1.37Ti4.19,1.0,original
Ca0.18O0.2Sr0.93Ti4.19,1.0,original
Al2.03Pt2.29,1.0,original
C1.29K5.32,1.0,original
Ir0.2Os1.37Rh0.51,1.0,original
Na0.74O0.2W5.25,1.0,original
Si0.92Sr3.22,1.0,original
K5.32,1.0,original
La0.97Tl13.51,1.0,original
IrRe0.18Rh0.24,1.0,original
Ir0.93Os0.21Rh0.42,1.0,original
Cd11.81,1.0,original
Ge1.57La1.11Pt4.72,1.0,original
Be12.82U3.42,1.0,original
B10.52Lu2.61Zr0.62,1.0,original
Ce5.81Pt7.01Si0.25,1.0,original
Co4.41Ge0.7U3.54,1.0,original
Pt1.61,1.0,original
Ir0.14Os2.56,1.0,original
Ir1.62Ta5.24Te9.86,1.0,original
Be12.82U3.39,1.0,original
Ge2.41Ni2.3Y4.44,1.0,original
Ni0.82U2.08,1.0,original
Bi0.8Cd4.69,1.0,original
Cd11.46Hg0.11,1.0,original
Pr0.17Th2.65,1.0,original
Pd14.19Se1.15,1.0,original
Au6.47,1.0,original
Ge2.41Ir1.62Sr1.46,1.0,original
Be12.82La1.11,1.0,original
Be12.82U3.48,1.0,original
Al2.76Ga0.29Pd3.98U3.54,1.0,original
Ce5.81Pd3.98Si0.58,1.0,original
As1.23Hf9.88,1.0,original
Pb3.1Te2.37,1.0,original
Au7.67Ta22.93,1.0,original
Pt7.14U3.54,1.0,original
Al3.08Ni4.79U3.62,1.0,original
Ru2.65,1.0,original
Pt7.15V0.73,1.0,original
Fe0.27Zr2.11,1.0,original
Ba0.64,1.0,original
O0.2Sr1.33Ti4.19,1.0,original
B0.73Mo1.1,1.0,original
Cr0.38Rh0.24,1.0,original
K1.34O0.2W5.25,1.0,original
Mo0.91,1.0,original
Ir1.31,1.0,original
Pd0.99Sb0.47,1.0,original
Ir1.62Si0.25Ta5.24,1.0,original
Ag4.11Bi4.85La2.55S6.54,1.0,original
Th3.56U0.46,1.0,original
Bi1.47Co4.41,1.0,original
Lu3.29Rh8.99,1.0,original
Rh1.1Te0.7,1.0,original
Mo1.1Te4.62,1.0,original
Cr0.39Re0.21,1.0,original
Ce5.81Ge2.41Ni2.3,1.0,original
B10.52Lu3.29,1.0,original
Hg21.96Mg3.17,1.0,original
Hg7.24Mg3.17,1.0,original
Ir3.36La1.11,1.0,original
Ir1.1Os0.84,1.0,original
La0.97Se0.54,1.0,original
Be12.82U3.47,1.0,original
Ba0.64Sb2.13Ti8.52,1.0,original
Bi3.16Eu13.73F20.82S4.3Sr1.46,1.0,original
Bi4.85Co4.41,1.0,original
Ce5.81Hg0.29In8.83Ir1.62,1.0,original
Ce5.81Ni0.26Pt6.71Si0.25,1.0,original
Ce5.81Co7.46Rh0.48,1.0,original
Pd3.98Si0.58Y2.04,1.0,original
Ir3.36S4.3Zn1.61,1.0,original
Ce5.81Co8.5Ru0.13,1.0,original
Os0.94Ru1.71,1.0,original
Cu0.13Y2.04,1.0,original
In1.68N5.82,1.0,original
As1.47Pd10.1,1.0,original
Ce5.81Co7.46Ni0.63,1.0,original
La1.11Pt4.72,1.0,original
Os3.03Ti4.19,1.0,original
As0.65Pd10.1,1.0,original
Be12.82U3.38,1.0,original
Ir0.1Os1.07Rh0.79,1.0,original
Ge2.41Ni2.3Y2.04,1.0,original
K5.32Ni4.79S2.07,1.0,original
Ge2.41Nb6.17,1.0,original
Ge2.41Ni2.3Sr1.46,1.0,original
Mo1.1Te4.72,1.0,original
Cr1.47Ir1.62,1.0,original
B5.18La1.11,1.0,original
Ge0.67,1.0,original
Ce5.81Ge1.57Rh1.7,1.0,original
In1.68Lu3.29Pt4.72,1.0,original
Ti0.51U3,1.0,original
Ce2.81La0.4Ru5.45,1.0,original
Pt2.29Th3.56,1.0,original
As0.24In1.68Te1.13,1.0,original
Ru2.63,1.0,original
Ce5.81Co4.41In8.65,1.0,original
Cd0.83Ce5.81Co4.41In8.79,1.0,original
Au6.62,1.0,original
Ni1.06Zr1.16,1.0,original
Ni3.55V0.34Zr3.7,1.0,original
Ce5.81Rh3.52Si0.58,1.0,original
Ce5.81In8.92Ir1.62,1.0,original
Ru2.61,1.0,original
Au6.54,1.0,original
Pa79.94,1.0,original
Ce5.81In8.92Ir1.55,1.0,original
Co4.41Ge0.68U3.54,1.0,original
Pd8.06Se0.54,1.0,original
Ge0.18In0.16Sn0.34Te2.37,1.0,original
F2.03W5.25,1.0,original
In1.68Lu3.29Pd0.71Pt3.75,1.0,original
Bi1.64Nb1.1S3.3,1.0,original
As1.47Mo1.1,1.0,original
Pd1.94Sn0.78,1.0,original
Pd3.98Sn0.78,1.0,original
Nb0.62Pt0.78,1.0,original
Ru2.54,1.0,original
Ir1.36W0.73,1.0,original
F2.19W5.25,1.0,original
Au38.67Ba0.64,1.0,original
Ge0.73Pt2.29,1.0,original
Ir1.19Os0.68,1.0,original
La0.18Y1.21,1.0,original
Pt0.22Ta4.44,1.0,original
Cr0.28Ir0.58,1.0,original
Ce11.8Co4.41In14.35,1.0,original
Ce5.81Cu0.76Si0.57,1.0,original
Ru2.6,1.0,original
Ir0.98Os0.74,1.0,original
La1.11Sb2.38,1.0,original
Ce5.69Pt7.15Si0.25,1.0,original
Pb1.13Sn0.4Te2.37,1.0,original
Co8.96Ge1.57Y2.04,1.0,original
In1.68Lu3.29Pd3.16Pt0.83,1.0,original
Ge2.41La2.55Ni2.3,1.0,original
Al0.98Os3.03,1.0,original
B10.52Sc4.95,1.0,original
La1.11Pd3.98Si0.58,1.0,original
O13.31P7.36W74.31,1.0,original
Au6.58,1.0,original
Ga1.1Zr7.55,1.0,original
Rh1.7V2.32,1.0,original
Be12.82Th0.1U3.35,1.0,original
B1.62La1.11Rh5.35,1.0,original
Cr0.13Ru1.81,1.0,original
Ru2.53,1.0,original
F2.24W5.25,1.0,original
Ce5.81Pt7.22Si0.24,1.0,original
Ir1.62Th3.56,1.0,original
Pt2.29Sn0.78,1.0,original
Cr0.18V0.43,1.0,original
La0.68Pb9.62Pr0.21,1.0,original
Ir0.58Os0.84Rh0.42,1.0,original
Au7.67Lu3.29,1.0,original
Rh1.7Th3.56,1.0,original
Ru2.56,1.0,original
Au3.5Ge0.24Yb1.24,1.0,original
Al0.98La1.11O0.2,1.0,original
Ce5.81In8.92Ir1.45,1.0,original
Al2.03Zr3.7,1.0,original
Sc0.19Zr3.43,1.0,original
Ni0.36V0.56,1.0,original
Co4.41Lu10.06,1.0,original
Co1.23Sc3.45,1.0,original
P1.78Pd6.02,1.0,original
Pt7.13U3.54,1.0,original
Ce5.81Co8.05Ru0.41,1.0,original
Ir0.17Os2Rh0.18,1.0,original
Bi1.47Eu6.81F5.12S2.07,1.0,original
Si0.58Ta5.24,1.0,original
Pd1.37W1.42,1.0,original
Be12.82Th0.13U3.33,1.0,original
Sc4.95,1.0,original
Au38.67Ca1.05,1.0,original
Co1.14Y1.37,1.0,original
Co4.41Y6.83,1.0,original
Ir1.15Os0.43Ru0.13,1.0,original
Ag13.69Al0.98,1.0,original
Ru2.37,1.0,original
Ir1.45,1.0,original
Si0.25,1.0,original
Si0.23,1.0,original
Al2.45Ga0.64Pd3.98U3.54,1.0,original
Au6.7,1.0,original
Au4.84Yb1.51,1.0,original
Zr3.66,1.0,original
Au3.02Ge0.4,1.0,original
Cs10.49S8.78V4.7,1.0,original
Pr0.24Th2.32,1.0,original
Ce17.8In19.78Pt2.29,1.0,original
Ge0.68Te2.37,1.0,original
As0.65Nb3.63,1.0,original
Mo1.09,1.0,original
Ce5.81Pt7.15Si0.22,1.0,original
Th3.56U0.64,1.0,original
Ba1.18Cu1.39La0.4O1.31Y2.04,1.0,original
Ag29.09F5.12O1.59,1.0,original
Cu1.39Na7.87S3.19,1.0,original
Mo1.1Te4.87,1.0,original
O0.2Sr1.46Ti4.06,1.0,original
Al20.94La1.11Ti8.52,1.0,original
N1.68S0.61,1.0,original
Ru2.48,1.0,original
Ce1.91Ge9.94Pr0.48Pt9.58,1.0,original
Co4.41Ge0.67U3.54,1.0,original
Mg22.88Zn6.11,1.0,original
Ir0.13Ru2.25,1.0,original
Ir0.86Os0.65Rh0.24,1.0,original
Au6.12In0.24,1.0,original
Ir3.36La0.76Pr0.17Zn40.94,1.0,original
Ce5.81Co3.64In8.92Pt0.27,1.0,original
Ce5.81Cu0.76Si0.56,1.0,original
Ce5.81Co7.59Ru0.69,1.0,original
Ru2.58,1.0,original
Ru2.35,1.0,original
Ir0.74Os0.55Rh0.42,1.0,original
Se0.36Ta5.24Te3.12,1.0,original
Au6.89,1.0,original
N5.82S0.95,1.0,original
Ir1.36,1.0,original
Ge0.73Rh1.7U3.54,1.0,original
B0.73Ta7.92W2.59,1.0,original
Ir1.03Mo0.27,1.0,original
Ru2.57,1.0,original
Ir0.86Re0.15Rh0.42,1.0,original
Ge0.73Te2.37,1.0,original
La5.41Sb3.61,1.0,original
Ge0.69Te2.37,1.0,original
Ba6.04Ge20.83,1.0,original
Cd11.34,1.0,original
In5.3Lu3.29,1.0,original
Pt7.12U3.54,1.0,original
Ce5.81Ge1.57Ni4.79,1.0,original
Pb9.62Yb9.91,1.0,original
Ir1.45W0.46,1.0,original
Ru5.42Si0.58U3.54,1.0,original
Ce11.8Ge4.08Ni7.28,1.0,original
Au7.67In3.49,1.0,original