formula,Tc,type
Ca1.05Cu0.76O1.18Sr3.22Tl4.41,23.0,original
Cu0.13O0.75Sr3.22,23.0,original
Bi3.08Cu0.13La0.25O1.13Sr2.6,23.0,original
Ba1.29Ca0.12Cu1.39O1.09Sr0.4Yb7.41,23.0,original
C1.25Cu0.76O5.85Pb1.51Sr6.74Tl2.14,23.0,original
Cu0.13La1.92Nd1.28O0.48,23.0,original
Ba0.64Bi1.47K5.32O0.48,23.0,original
Ba0.15Bi1.47K2.38O0.2,23.0,original
Ca1.24Cu0.76La2.33O1.03,23.0,original
O1.03Ru2.09Sr3.22Y2.04,23.0,original
Cu0.13La2.24O0.48,23.0,original
Ba1.72Cu1.3Ga0.12Nd4.84O1.21,23.0,original
Ba1.72Cu1.36O1.23Y2.04,23.0,original
Ba1.72Cu1.34O1.24Y2.04Zn0.15,23.0,original
Cu0.13La2.33O0.48,23.0,original
Cu0.13F1.98Nd9.83O0.48,23.0,original
Cu0.13La1.11O0.48,23.0,original
Cu0.13La2.4O0.48,23.0,original
Ba1.72Cu1.2Er7.65O1.3Zn0.21,23.0,original
Ba1.72Cu1.36O1.18Y2.04,23.0,original
Cu0.13La0.9Nd4.84O0.48,23.0,original
Cu0.13La2.39O0.48,23.0,original
Cu0.13La2.38O0.48,23.0,original
Cu0.13La1.92Nd1.28O0.47,23.0,original
Ce5.81Cu0.76Eu10.27Mo1.1O2.15Sr3.22,23.0,original
Ce0.71Cu0.13O0.48Pr1.41,23.0,original
Cu0.76Er7.65O1.54Ru2.37Sr3.22,23.0,original
Ba0.64Cu1.39O1.31Pr0.44Sr1.46Y0.61,23.0,original
Br11.06Ca2.07Cl8.18Cu0.13Na0.64,23.0,original
B2.51Pd10.1Y2.04,23.0,original
C10.41K10.77Rb5.68,23.0,original
Cl8.18Hf9.88N5.82Na1.06,23.0,original
As0.65F0.46Fe1.02La1.11,23.0,original
As1.47Ba0.64Co0.54Fe2.11,23.0,original
As0.65Ca1.05Co0.32F5.12Fe0.89,23.0,original
As1.47Fe2.3Sr1.46,23.0,original
As1.47Ba0.64Fe1.89Ru0.74,23.0,original
As0.65F0.41Fe1.02La1.11,23.0,original
As1.47Ba0.64Fe2.17Pt0.1,23.0,original
As1.47Eu3.35Fe2.23K2.59,23.0,original
Ba3.88Cu3.91O3.32Pr1.53,23.0,original
As0.65Ca1.05Co0.18Fe0.93H3.58,23.0,original
As0.65Ce5.81Co0.18Fe0.93H3.58,23.0,original
As0.65Ce5.81Co0.27Fe0.91H3.58,23.0,original
As0.65Ce5.81Co0.41Fe0.87H3.58,23.0,original
As3.12Eu6.81Fe4.6Ni0.31Rb5.68,23.0,original
Ce0.71Cu0.13Nd9.09O0.48,23.0,original
Cu0.13La2.44O0.48,23.0,original
Ce0.65Cu0.13Nd9.14O0.48,23.0,original
Ba1.4Cu1.39Gd8.95O1.33Pr0.21,23.0,original
Al0.14B1.62Mg2.51,23.0,original
As1.47Ba0.64Co0.55Fe2.11,23.0,original
Cu0.12La2.3O0.48,23.0,original
B1.62Mg3.17,23.0,original
As1.47Ba0.64Co0.39Fe2.15,23.0,original
Cu0.12La2.33O0.48,23.0,original
As0.65Fe1.02Tb13.87,23.0,original
Ba0.45Bi0.68K0.85Pb1.41,23.0,original
As0.65F0.3Fe1.02La1.11,23.0,original
Cu0.13La2.48O0.5,23.0,original
Ce0.65Cu0.13O0.48Sm12.76,23.0,original
Br5.23Cl4.26Hf9.88Li7.24N5.82,23.0,original
As0.65Ca1.05Co0.27Fe0.91H3.58,23.0,original
As1.47Ba0.49Fe2.3,23.0,original
As0.65F0.46Fe1.01La0.83Y0.13,23.0,original
Bi3.16Cu0.13La0.68O1.15Sr1.99,23.0,original
Cu0.13La2.32O0.48,23.0,original
Cu0.13La2.45O0.48,23.0,original
Ce0.77Cu0.13Nd9.04O0.48,23.0,original
B1.62Pd3.98Y2.04,23.0,original
Cl8.18Hf6.89Li7.24N5.82Zr,23.0,original
As1.47Ba0.47Fe2.3Rb0.49,23.0,original
As14.67Ca11.32Ce4.25Fe12.54Pt7.15,23.0,original
As0.15F0.41Fe1.02Nd4.84P1.03,23.0,original
Ba1.72Cu1.39O1.15Y2.04,23.0,original
Ce0.73Cu0.13Nd9.07O0.48,23.0,original
Cu0.13Nd9.09O0.48Th0.46,23.0,original
Ba1.72Cu1.83O1.59Y2.04Zn0.58,23.0,original
Cu0.13La1.76Nd1.84O0.48,23.0,original
Ba0.16Bi1.47K2.32O0.2,23.0,original
Ce0.35Cu0.13La2.42O0.48,23.0,original
As1.47Ba0.64Fe1.18Ru2.3,23.0,original
As14.67Ca12.24Fe11.77Pt11.04,23.0,original
Al2.03As1.14Ca4.78Fe2.3O1.03P0.66,23.0,original
As1.47Ba0.64Co0.5Fe2.12,23.0,original
Cu0.13La2.43O0.48,23.0,original
Ba1.72Cu1.96O1.59Y2.04Zn0.17,23.0,original
Ce0.71Cu0.11O0.47Pr1.41,23.0,original
As0.88Ba0.64Fe2.3P1.25,23.0,original
Fe1.92Se1.15Tl4.41,23.0,original
As1.47Ba0.51Fe2.3,23.0,original
As0.44F0.15Fe1.02La1.11P0.38,23.0,original
Cu0.13La2.26O0.48,23.0,original
Ce0.71Cu0.12O0.47Pr1.41,23.0,original
Ce0.67Cu0.13O0.48Sm12.74,23.0,original
As1.47Ba0.1Fe2.17K2.59,23.0,original
Cu0.13La2.42O0.48,23.0,original
Ce0.71Cu0.13Nd8.59O0.47Sm0.57,23.0,original
Ba0.12Bi1.47K2.54O0.19,23.0,original
Hf9.88I10.24Li7.24N5.82,23.0,original
As1.47Ba0.64Fe2.11Rh0.15,23.0,original
As0.65Ca1.05F5.12Fe0.92,23.0,original
Fe2.3Rb4.53SeTe0.5,23.0,original
As14.67Ca11.08Fe12.54La1.01Pt7.15,23.0,original
As14.67Ca11.12Fe12.54La0.97Pt7.15,23.0,original
Ce0.71Cu0.13Nd9.09O0.46,23.0,original
Cu0.13La2.25O0.48,23.0,original
Ge0.73Nb3.63,23.0,original
Al0.24B1.62Mg2.19,23.0,original
As14.67Ca9.98Fe12.54La2.29Pt7.15,23.0,original
As0.65F0.46Fe0.77Nd4.84Ru0.41,23.0,original
As1.47Fe2.3La0.11Na2.72,23.0,original
Cu0.13La2.26O0.48,22.0,original
Ba1.72Co1.23Cu1.2O1.28Y2.04,22.0,original
Cu0.13La0.11Nd7.59O0.48Th0.46,22.0,original
Ce0.71Cu0.13La0.97Nd4.59O0.48,22.0,original
Bi3.16Ca2.91Cu0.76O1.68Sm3.34,22.0,original
Bi3.16Ca0.43Cu0.76O1.59Sr3.22Y0.85,22.0,original
Cu0.13La2.29O0.47,22.0,original
Ce0.71Cu0.13Nd9.09O0.48,22.0,original
Ba1.72Cu1.39O1.31Pr0.31Y1.01,22.0,original
Cu0.13La2.47O0.48Rb0.23,22.0,original
Bi3.08Cu0.13O0.48Pr0.44Sr2.25,22.0,original
Ba1.72Co0.82Cu1.26O1.31Y2.04,22.0,original
Ca0.43Cd5.88Cu0.76O1.31Pb1.51Sr3.22Y0.85,22.0,original
Ba2.64Ca0.18Cu3.28La3.77O3.34,22.0,original
Cu0.13F5.12Nd9.83O0.48,22.0,original
Ba0.64Ca1.05Cu1.24La1.11O1.31,22.0,original
Ba1.29Ca0.12Cu1.39O1.03Sr0.4Yb7.41,22.0,original
Cu0.13La2.29O0.48,22.0,original
Cu0.13La2.26Nd0.35O0.48,22.0,original
Cu0.13La1.14O0.48Pr0.63,22.0,original
Ba0.21Cu0.13La1.11O0.8Sr0.4Tl4.41,22.0,original
Ba1.72Cu0.13Hg7.24O0.58,22.0,original
Cu0.13La2.23O0.48,22.0,original
Ba1.18Cu1.39La0.4O1.33Y2.04,22.0,original
Ce2.81Cu0.13Eu10.27O2.15Sr3.22Ti4.19,22.0,original
Cu0.13La2.33O0.48,22.0,original
Cu0.12La2.26O0.48,22.0,original
Cu0.13La2.4O0.48,22.0,original
Ba3.88Cu3.91O3.36Y4.44,22.0,original
Ce0.71Cu0.13O0.48Pr1.41,22.0,original
Ba1.72Co1.5Cu1.17O1.32Y2.04,22.0,original
Ce0.71Cu0.13O0.47Pr1.41,22.0,original
Ce0.59Cu0.13La2.36O0.48,22.0,original
Cu0.76Gd8.95O1.59Ru2.37Sr3.22,22.0,original
B2.51Pd6.02Y2.04,22.0,original
B1.26Mg3.17,22.0,original
B1.44Mg3.17,22.0,original
Cl8.18Hf9.88N5.82Na0.66,22.0,original
As0.65F0.77Fe1.02Gd8.95,22.0,original
As0.65F0.28Fe1.02La1.11,22.0,original
As1.47Ba0.64Co0.77Fe2.05,22.0,original
Ce0.53Cu0.13La1.11O0.46Pr0.66,22.0,original
As1.47Ba0.64Co0.59Fe2.1,22.0,original
As1.47Ba0.64CoFe1.98,22.0,original
As1.47Ba0.64Fe2.3,22.0,original
As1.47Ba0.12Co0.9Fe2.01K2.53,22.0,original
As1.47Co0.32Fe2.17Mg3.17O1.03Sr6.74Ti4.19,22.0,original
As1.21Eu6.81Fe2.3P0.51,22.0,original
As1.47Fe2.3O1.59Sc7.46Sr6.74Ti6.36,22.0,original
As1.47Ca0.43Fe2.3Na1.93,22.0,original
As1.47Ca0.64Fe2.3Sr0.28,22.0,original
Fe2.3K4.23Se1.15,22.0,original
As1.47Ba0.43Fe2.3K0.96,22.0,original
As0.65Fe0.98Na3.91,22.0,original
As0.48Fe1.02Pr0.48Sb0.16Sr0.31,22.0,original
As0.57Fe1.02Pr0.44Sr0.4,22.0,original
Cu0.76Eu6.81Fe1.02O1.45Sr3.22,22.0,original
As0.65Ca1.05Co0.32F5.12Fe0.89,22.0,original
As1.47Ca0.78Fe1.02,22.0,original
Fe1.79Rb4.24S0.95Se0.54,22.0,original
As1.47Ca0.75Ce1.25Fe1.02,22.0,original
As1.47Ba0.64Co0.5Fe2.12,22.0,original
Cu61.18La2.33O0.48,22.0,original
Ba1.72Cu1.39O1.11Y2.04,22.0,original
Ba0.64Ca0.3Cu1.39La1.11Nd2.84O1.37,22.0,original
Ce0.71Cu0.13O0.48Sm12.69,22.0,original
Ba1.72Cu1.39O1.31Pr0.36Y0.85,22.0,original
As1.47Fe1.98Rh0.33Sr1.46,22.0,original
As0.53Fe1.02Pr0.48Sr0.31,22.0,original
As1.47Eu6.81Fe1.94Ir0.37,22.0,original
As14.67Ca10Fe12.54La2.26Pt7.15,22.0,original
As0.57Fe1.02Pr0.48Sr0.31,22.0,original
Bi3.16Cu0.13O1.12Pr0.28Sr2.52,22.0,original
Cu0.13La2.38O0.48,22.0,original
Ce0.71Cu0.13Nd7.59O0.47Sm1.96,22.0,original
Ce0.71Cu0.13O0.47Sm12.69,22.0,original
Ge0.73Nb3.63,22.0,original
C10.41K10.77Rb5.68,22.0,original
Cu0.13La1.76Nd1.84O0.48,22.0,original
Cu0.13La2.32O0.48,22.0,original
As0.65Fe1.02La1.11,22.0,original
As0.53Ce5.81F0.15Fe1.02P0.19,22.0,original
Ce0.77Cu0.13Nd9.04O0.48,22.0,original
Cu0.13La1.69Nd1.84O0.48,22.0,original
Cu0.13La2.37O0.48,22.0,original
As1.47Fe2.3K1.67Sr0.88,22.0,original
As1.47Ba0.64Co0.57Fe2.1,22.0,original
As0.65F0.67Fe0.89Ru0.13Sm6.8,22.0,original
As0.24Fe1.02P0.85Sm6.8,22.0,original
As0.98Ba0.64Fe2.3P1.03,22.0,original
Cu0.13La2.24O0.48,22.0,original
Ba1.72Cu1.39Nd4.09O1.24,22.0,original
Ce0.71Cu0.13Nd8.09O0.47Sm1.26,22.0,original
Ce0.71Cu0.13Nd9.09O0.47,22.0,original
Cu0.13La2.55O0.48,22.0,original
Ce0.71Cu0.13La0.11Nd7.59O0.48,22.0,original
Ba0.21Bi1.3K2.05O0.2Pb0.21,22.0,original
Ba0.23Bi1.47K1.94O0.2,22.0,original
Ba1.72Cu1.39O1.2Pr0.24Y1.21,22.0,original
Ce0.35Cu0.13O0.48Pr1.46,22.0,original
B2.51Pd6.02Th3.56,22.0,original
Cu0.12La2.33O0.48,22.0,original
As1.47Ba0.64Co0.36Fe2.16,22.0,original
As1.47Eu6.81Fe1.66Ru1.25,22.0,original
As3.12Ba1.72Fe2.3Ti8.52,22.0,original
As1.47Eu6.81Fe1.28P1.4,22.0,original
As1.47Ca0.73Fe0.96La36.95,22.0,original
Ce0.71Cu0.13Gd0.8O0.47Sm12,22.0,original
As1.47Ba0.64Co0.55Fe2.11,22.0,original
Fe1.73K3.68S0.94Se0.55,22.0,original
As0.15F0.41Fe1.02La1.11P1.03,22.0,original
Ce0.65Cu0.13Nd9.14O0.46,22.0,original
Ba0.91Ca0.3Cu1.39La1.62O1.32,22.0,original
Cu0.13La2.22O0.48Sr0.1,22.0,original
As1.47Ba0.64Fe0.86Ru3,22.0,original
As0.65F0.46Fe0.64Nd4.84Ru0.69,22.0,original
Cu0.13La2.44O0.48,22.0,original
Ce0.71Cu0.13Nd8.09O0.48,22.0,original
Ba0.18Bi1.47K2.21O0.2,22.0,original
Ce0.71Cu0.12O0.47Pr1.41,22.0,original
Ce0.62Cu0.13La2.35O0.48,22.0,original
As0.65Ca1.05Co0.55F5.12Fe0.83,22.0,original
As1.47Ca1.05Co0.22Fe2.2,22.0,original
As1.47Ba0.64Fe1.64Ru1.3,22.0,original
As0.24F0.15Fe1.02La1.11P0.85,22.0,original
Bi1.47K2.7O0.17,22.0,original
Ba1.72Cu1.39O1.17Y1.8,22.0,original
Ce0.71Cu0.12Mn0.24Nd9.09O0.48,22.0,original
As0.65F0.46Fe1.02La1.11,22.0,original
As0.65Fe0.99Na3.91,22.0,original
As1.47Ba0.64Fe1.98Pt0.47,22.0,original
As1.47Ba0.64Co0.66Fe2.08,22.0,original
As0.15F0.62Fe1.02La1.11P1.03,22.0,original
Cu0.13La2.36O0.48,22.0,original
Cu0.1La2.26O0.48,21.0,original
Ba1.72Cu1.17Fe0.2Gd8.95O1.31,21.0,original
Cu0.13La2.26O0.48,21.0,original
Ce0.71Cu0.13Nd8.59O0.48,21.0,original
Cu1.17Ga0.35O1.23Sr3.22Y2.04,21.0,original
Cu1.14Fe0.26O1.31Sr3.22Y2.04,21.0,original
Cu1.19O1.2Sr3.22Ti1.27Y2.04,21.0,original
Cu1.17O1.26Sr3.22Ti1.37Y2.04,21.0,original
Bi3.16Cu0.13La0.4O1.14Sr2.34,21.0,original
Ce0.71Cu0.13Nd9.09O0.48,21.0,original
Ca1.97Cl15.35Na0.47,21.0,original
Cu0.13K0.31La2.43O0.48,21.0,original
Cu0.13K3.14O0.75Sr2.16,21.0,original
Ca1.05Cu0.76O1.25Sr3.22Tl4.41,21.0,original
Ba1.72Cu1.9Ni0.31O1.59Y2.04,21.0,original
Cu0.13O0.75Sr3.22,21.0,original
Ce2.81Cu0.76Eu10.27Nb1.1O2.14Sr3.22,21.0,original
Ce0.71Cu0.13O0.46Pr1.36,21.0,original
Ce4.01Cu0.76O1.79Sr3.22Ti0.94Y2.76,21.0,original
Cu0.13La2.3O0.48,21.0,original
Cu0.13Nd9.09O0.48,21.0,original
Ba1.72Cu1.39O1.21Pr0.13Sm5.42,21.0,original
Ba1.72Cu1.2Dy9.39O1.23Zn0.58,21.0,original
Cu0.13La2.18Nd0.47O0.48,21.0,original
La2.23O0.48,21.0,original
Cu0.13La2.23O0.48,21.0,original
Cu0.13La2.22O0.48Sr0.1,21.0,original
Ba1.72Cu1.17Er7.65O1.3Zn0.34,21.0,original
Ba1.72Cu1.36O1.21Y2.04,21.0,original
Ce0.71Cu0.13Gd1.7O0.47Sm11.3,21.0,original
Cu0.76Gd7.32Nd0.74O1.59Ru2.65Sr3.22,21.0,original
Ce0.65Cu0.13O0.48Pr1.42,21.0,original
Ce0.71Cu0.13O0.48Pr1.41,21.0,original
B1.44Mg3.17,21.0,original
B0.73Pd8.06Y2.04,21.0,original
Nb0.83,21.0,original
Cl8.18Hf4.89Li7.24N5.82Zr1.77,21.0,original
B1.55F0.3Mg3.17,21.0,original
Ce0.71Cu0.11Mn0.52Nd9.09O0.48,21.0,original
As1.47Fe2.3Sr1.46,21.0,original
As0.65Fe1.02La1.11,21.0,original
Cu0.76Mo1.1O1.59Sr3.22Y2.04,21.0,original
As1.47Co0.86Eu6.81Fe2.02,21.0,original
As1.47Ba0.64Fe1.34Ru1.95,21.0,original
As1.47Ba0.64Co0.66Fe2.08,21.0,original
As1.47Co1.16Eu6.81Fe1.94,21.0,original
As1.23Eu6.81Fe2.3P0.47,21.0,original
As1.47Ca0.55Fe2.3Na1.53,21.0,original
Cu0.13La2.16O0.48Sr0.17,21.0,original
Ba3.88Cu3.91O3.35Pr1.53,21.0,original
As0.65Fe0.99Na3.91,21.0,original
As0.65Fe0.98Na3.91,21.0,original
As1.46Ca0.85Ce0.77Fe1.02,21.0,original
As0.65Fe1.02H1.54La1.11,21.0,original
As1.47Ca0.86Fe1.02,21.0,original
As1.47Eu6.81Fe2.02Ir0.27,21.0,original
As0.65F0.46Fe1.02La1.04,21.0,original
As3.12Ba1.72Fe2.3Ti8.52,21.0,original
As1.47Ba0.64Co0.33Fe2.16,21.0,original
Ba1.72Cu1.39Gd5.33O1.31Pr0.28,21.0,original
Al0.13Nb0.78,21.0,original
B1.26Be0.33Mg3.17,21.0,original
As14.67Ca11.43Dy6.76Fe12.54Pt7.15,21.0,original
As0.15F0.41Fe1.02La1.11P1.03,21.0,original
As0.7Ba0.64Fe2.3P1.66,21.0,original
Al0.74Nb3.63,21.0,original
Ba3.88Cu3.91O3.39Pr1.53,21.0,original
Al0.72Ge0.11,21.0,original
Al0.77Nb3.63,21.0,original
Al0.67Ge0.14Nb3.63,21.0,original
Cu0.13Sr1.37,21.0,original
As1.47Ba0.64Co0.68Fe2.07,21.0,original
Ba0.13Bi1.47K2.49O0.18,21.0,original
Cu1.19O1.37Sr3.22Y2.04,21.0,original
Cu0.13La2.19Nd0.35O0.48,21.0,original
Cu0.76Gd8.95O1.59Ru2.65Sr3.18,21.0,original
Cu0.13La2.33O0.48,21.0,original
As0.48Ce5.81F0.15Fe1.02P0.29,21.0,original
Ba3.88Cu3.91O3.37Pr1.53,21.0,original
Ba1.72Cu1.33O1.21Y2.04,21.0,original
Ba1.72Cu1.33O1.2Y2.04,21.0,original
Ga1.1Nb3.63,21.0,original
As0.65F0.15Fe1.02La1.11,21.0,original
As1.47Ba0.64Co0.36Fe2.16,21.0,original
As1.47Fe2.3La0.25Sr0.75,21.0,original
As14.67Ca8.32Fe12.54Pr2.42Pt7.15,21.0,original
As1.47Ba0.39Fe2.3K1.15,21.0,original
Ge0.73Nb3.63,21.0,original
Ba0.2Bi1.47K2.1O0.19,21.0,original
O1.03Ru2.37Sr3.22Y2.04,21.0,original
Ba1.72Cu1.39O1.3Pr0.28Y1.09,21.0,original
Al0.73Nb3.63,21.0,original
Al0.62Ge0.18Nb3.63,21.0,original
As1.47Ca1.05Co0.23Fe2.2,21.0,original
As0.65Ca1.05Co0.55F5.12Fe0.83,21.0,original
As3.12Ca1.05Fe4.7K5.32Ni0.13,21.0,original
Al0.72Ge0.11Nb4.65,21.0,original
Cu0.13La2.43O0.47,21.0,original
Ba0.64Cu1.39O1.28Pr0.48Sr1.46Y0.49,21.0,original
Ce0.83Cu0.13O0.48Pr1.39,21.0,original
Ga0.41Nb0.59,21.0,original
C10.41K16.22,21.0,original
As0.65Fe1.02La0.93,21.0,original
Cl8.18Hf9.88N5.82Sr0.28,21.0,original
As0.65Fe1.02H1.46La1.11,21.0,original
As1.47Ba0.64Fe2.17,21.0,original
As1.47Ba0.64Fe2.16,21.0,original
Al0.62Nb3.76,21.0,original
Al0.1Nb0.82,21.0,original
Al0.12Nb0.78,21.0,original
Bi2.66Cu0.13La0.25O1.07Pb0.86Sr2.52,21.0,original
Cu1.3O1.26Pr0.44Re0.17Sr3.22Y0.61,21.0,original
Ce0.71Cu0.13Gd2.61O0.47Sm10.61,21.0,original
Cu0.13La2.26O0.49Pr0.13,21.0,original
Al0.72Ge0.11Nb3.63,21.0,original
Ga0.32Nb0.7,21.0,original
Ga0.23Nb0.79,21.0,original
As1.47Ba0.64Fe2.18,21.0,original
Cl8.18Hf9.88N5.82,21.0,original
As0.65F0.46FeLa0.83Mn0.17Y0.13,21.0,original
Cu0.13La2.4O0.48,21.0,original
Al0.11Nb0.78,21.0,original
Cu0.13La2.39O0.48,21.0,original
As1.47Fe1.41Ru1.81Sr1.46,21.0,original
Al0.12Ba1.72Cu1.28O1.31Y2.04,20.0,original
Cu0.13La2.4O0.47,20.0,original
Ba1.72Cu1.39Er7.65O1.13,20.0,original
Ba1.72Cu1.39O1.17Y2.04,20.0,original
Cu0.13La0.76O0.46Sm6.8Sr0.14,20.0,original
Ba1.18Cu1.39Nd7.34O1.35,20.0,original
Bi3.16Ce1.97Cu0.76O2.21Sr3.22Y3.57,20.0,original
Ce0.71Cu0.13Nd9.09O0.47,20.0,original
Ce0.71Cu0.13Nd9.09O0.48,20.0,original
Ce0.71Cu0.13Nd8.59O0.48,20.0,original
C10.41K16.22,20.0,original
Bi3.16Cu0.13La0.25O1.13Sr2.52,20.0,original
Ce2.81Cu0.76Nb1.1Nd7.34O2.15Sr3.22,20.0,original
Ce0.71Cu0.13O0.48Sm12.69,20.0,original
Cu1.08Fe0.38O1.28Sr3.22Y1.8,20.0,original
Ba0.16Bi1.47K2.32O0.2,20.0,original
Cu0.13K0.22La2.45O0.48,20.0,original
Cu0.13K2.59O0.75Sr2.34,20.0,original
Cu0.13K3.68O0.75Sr1.99,20.0,original
Ba1.72Cu0.13Hg7.24O0.48,20.0,original
Ce0.71Cu0.13O0.48Pr143.63,20.0,original
Al0.14Ba0.97Cu1.27O1.34Sr0.93Y2.04,20.0,original
Al0.14Ba0.64Cu1.27O1.35Sr1.46Y2.04,20.0,original
Ba0.64Ca1.05Cu1.34La1.11O1.31Zn0.15,20.0,original
Ba1.72Cu2.02O1.59Pr0.52Y0.37,20.0,original
Cu0.13La2.33O0.48,20.0,original
Ba0.1Bi1.47K2.59O0.2,20.0,original
Ce0.71Cu0.13Nd8.99O0.48,20.0,original
Cu0.13La2.05Nd0.84O0.48,20.0,original
Ba1.72Cu1.36Ho10.97O1.17,20.0,original
Cu0.13La2.23O0.48,20.0,original
Cu0.13La2.2O0.48Sr0.12,20.0,original
Ba0.21Cu0.13La1.11O0.75Sr0.4Tl4.41,20.0,original
Ba1.72Cu1.36O1.21Y2.04,20.0,original
Ba1.72Cu1.36O1.22Y2.04,20.0,original
Ba1.72Cu1.34O1.23Y2.04Zn0.15,20.0,original
Ba1.72Cu1.26O1.3Y2.04Zn0.4,20.0,original
Ba1.4Cu1.39Lu1.59O1.29Pr0.36Sr0.22,20.0,original
Ba1.18Cu1.39La1.54O1.23,20.0,original
Cu0.13La2.33O0.47,20.0,original
Cu0.13La2.25O0.48,20.0,original
Cu0.13La2.27O0.48,20.0,original
Ba1.72Cu1.35O1.2Y2.04Zn0.11,20.0,original
Ba1.72Cu1.34O1.24Y2.04Zn0.13,20.0,original
Bi3.16Cu0.13La0.63O1.03Sr2.06,20.0,original
Cu0.12La2.33O0.48,20.0,original
Cu0.13La2.42O0.48,20.0,original
Ce0.71Cu0.13O0.47Pr1.41,20.0,original
Cu0.1La2.4Li0.27O0.48,20.0,original
Ba1.72Cu1.39O1.16Y2.04,20.0,original
Cu0.76Eu6.81O1.59Ru1.81Sn0.16Sr3.22,20.0,original
Ce0.59Cu0.13La2.36O0.48,20.0,original
Ba1.72Cu1.39O1.13Y2.04,20.0,original
Ce0.71Cu0.13O0.48Pr1.41,20.0,original
Al0.93Nb3.63,20.0,original
Al0.91Nb3.63,20.0,original
Al0.9Nb3.63,20.0,original
Al0.12Nb0.78,20.0,original
Al0.13Nb0.78,20.0,original
Al0.14Nb0.78,20.0,original
Al0.15Nb0.78,20.0,original
Ga0.24Nb0.78,20.0,original
Li7.24,20.0,original
B1.48Mg3.17,20.0,original
Cl8.18Hf9.88Li2.61N5.82,20.0,original
As1.47Fe2.3K2.05Sr0.75,20.0,original
Cu0.13La2.4O0.48,20.0,original
As0.65Fe1.02Li7.97,20.0,original
As0.65Fe1.02La0.93,20.0,original
As1.47Ba0.64Co0.77Fe2.05,20.0,original
As0.65Fe1.02Sr3.22V0.73,20.0,original
As0.65F0.67Fe1.02La1.11,20.0,original
As1.47Ca0.43Fe2.3Na1.93,20.0,original
As0.24Fe1.02P0.85Sm6.8,20.0,original
Ca2.13Cl16.44Cu0.13Na0.47,20.0,original
As1.47Ba0.64Co0.46Fe2.08,20.0,original
As1.47Ba0.64Co0.36Fe2.14,20.0,original
Fe2.3K4.23Se1.15,20.0,original
As1.47Fe2.3K3.68,20.0,original
As1.47Ba0.64Co0.29Fe2.18,20.0,original
As1.47Ba0.64Fe2.17,20.0,original
As1.31Ca0.92Fe1.41,20.0,original
As1.47Ca0.92Fe1.02,20.0,original
Fe1.69K2.59Na0.9Se1.15,20.0,original
As1.47Ba0.54Fe2.3Yb0.92,20.0,original
Ba1.72Cu0.13O1.03Tl8.96,20.0,original
As0.65F0.15Fe1.02La1.11,20.0,original
As1.47Ba0.64Fe1.41Ru1.81,20.0,original
As1.36Ca1.05Fe2.3P0.18,20.0,original
As0.57Fe1.02H1.02La1.11P0.1,20.0,original
Cu0.13Eu1.27La2.26O0.34,20.0,original
As0.65Fe1.02O0.13Sr3.22V0.73,20.0,original
Co4.39H9.43Na2.92O0.28,3.0,original
Bi6.5O0.48S3.19,3.0,original
Ni0.44Zr2.72,3.0,original
In1.12Tl1.28,3.0,original
B3.4Ir6.85Lu2.27Y0.37,3.0,original
Ga0.64Si0.38Sr1.46,3.0,original
As0.65La1.11Ni2.3,3.0,original
Pb0.46Sn0.52Te2.37,3.0,original
Pt2.29Si0.25Th3.56,3.0,original
Te4.87Ti4.19,3.0,original
F0.62Fe1.02La1.11P1.78,3.0,original
Bi1.41K2.76O0.2,3.0,original
Mo0.97,3.0,original
Pb3.13Sn0.78Te2.37,3.0,original
Tl3.96,3.0,original
Au7.67V2.32,3.0,original
Zr3.6,3.0,original
In0.24Sn0.6Te2.37,3.0,original
Pd1.94Zr11.4,3.0,original
S3.19Sn0.78Ta5.24,3.0,original
B0.73Lu3.29Ni2.3,3.0,original
Bi1.47Ce5.81F3.02S2.07,3.0,original
Ge1.57Pd3.94Sr1.46,3.0,original
Ir5.11Si1.59Y4.44,3.0,original
Bi1.47F5.12La0.54S2.07Sr0.4,3.0,original
Se1.15Ti8.52,3.0,original
Mo0.98Ti0.25,3.0,original
Mo0.99Ti0.23,3.0,original
Mo0.99,3.0,original
V0.7,3.0,original
H3.11Pd1.94,3.0,original
H3.22Pd1.84,3.0,original
Co4.41Si0.25Th3.56,3.0,original
Se1.15Ta5.67,3.0,original
Ni0.63Zr2.43,3.0,original
B0.73Lu3.29Ni2.05,3.0,original
Zr3.2,3.0,original
Bi0.63Sb0.53,3.0,original
B1.62Lu1.76Ru2.65Tm3.44,3.0,original
Bi23.43Rh5.35,3.0,original
Bi3.16Eu6.81F20.82S2.07Se1.15Sr3.22,3.0,original
V0.69,3.0,original
Ir0.23Os5.54Th3.56,3.0,original
Ba0.64Bi0.21Hg1.73O0.2Pb1.51,3.0,original
Bi1.47F2.5La0.97S2.07Sm0.57,3.0,original
Ni0.78Zr2.2,3.0,original
B3.4Ir6.15Rh0.6Sc1.19Y1.44,3.0,original
Hf6.43Mo0.28,3.0,original
N5.46Nb0.15V0.54,3.0,original
Ru1.05V0.39,3.0,original
Ge1.57Pd3.57Rh0.24Sr1.46,3.0,original
Bi1.47Ce5.81F3.55S2.07,3.0,original
Bi3.16F0.41S2.07,3.0,original
Ir1.54Te4.87,3.0,original
Ba0.64O0.2Pb2.81,3.0,original
Pd0.26Zr3.02,3.0,original
B1.97Nd4.84Pt4.96,3.0,original
Ba0.64Pd0.31Si0.52,3.0,original
B0.64Lu3.29Ni2.3,3.0,original
Ca1.05Si0.43,3.0,original
Ba8.19Cu2.02Si14.01,3.0,original
Os6.17W15.87,3.0,original
Ga8.03Pt7.15,3.0,original
Rh1.53Ti1.59,3.0,original
Ru0.69Si0.25V2.08,3.0,original
Au7.67Nb2.38V0.73,3.0,original
Ga0.76Pt0.59,3.0,original
N4.75V0.73,3.0,original
Ta0.15Ti3.97,3.0,original
B1.62Co1.59Lu3.29Ni4.32,3.0,original
Si0.25W1.1,3.0,original
Ga1.1Nb4.9Se4.83,3.0,original
Fe3.58Si1.59Y4.36,3.0,original
Al2.03La1.11,3.0,original
Al2.02La1.11,3.0,original
,3.0,original
Al0.98Hf4.89Pd3.98Y0.85,3.0,original
Al0.98Ba0.64Sn0.78,3.0,original
Nb1.1Ni4.79Sn0.78,3.0,original
Nb2.37Pb3.52Se3.07,3.0,original
Lu3.29Rh3.52Sn0.78,3.0,original
Fe2.3Si0.58Y2.04,3.0,original
Bi3.16Te7.36,3.0,original
P1.78Ru2.37Zr3.7,3.0,original
As1.47Fe2.3K4.77Na0.34,3.0,original
Au3.79Mg3.17Pt1.07Si0.25,3.0,original