formula,Tc
La1.76Sr0.2Ho0.04Cu1O4,7.7
Ba0.6K0.4Bi1O3,7.69
Y0.7Pr0.3Ba2Cu3O6.5,7.69
La1.85Sr0.15Cu0.95Li0.05O4,7.69
H0.19La1.8Sr0.2Cu0.995Fe0.005O4,7.69
Mg1B1.85C0.15,7.69
Ca1.82Na0.18Cu1Cl2O2,7.68
La1.85Sr0.15Cu0.992Al0.008O4,7.67
Y0.5Pr0.5Ba2Cu3O6.68,7.66
La1.65Nd0.2Ca0.122Ba0.028Cu1O4,7.65
La1.92Sr0.08Cu1O4,7.65
La1.65Nd0.2Ca0.122Ba0.028Cu1O3.99,7.65
Mg0.79Al0.21B2,7.64
Mg0.7Al0.3B2,7.63
La1Fe1As1F0.11O0.89,7.63
Nd1Fe0.98Mn0.02As1F0.11O0.89,7.63
Sr0.6La0.4Fe1As1F1,7.63
Y1Ba2Cu2.7Zn0.3O7,7.63
Ba0.6K0.4Bi1O3,7.62
Bi2Sr2Eu1.64Ce0.36Cu2O10.26,7.62
Bi2Sr2Dy1.64Ce0.36Cu2O10.26,7.62
Y1Ba2Cu2.79Zn0.21O7,7.62
Ba0.65K0.35Bi1O3,7.61
La1.922Ba0.078Cu1O4,7.61
La1.8Sr0.2Ca1Cu2O6,7.61
Nd2Cu1F0.2O3.8,7.6
Nd2Cu1F0.3O3.7,7.6
Y1Sr2Cu2.7Co0.3O6.7,7.6
Bi2Sr2Eu1.64Ce0.36Cu2O10.26,7.6
Bi2Sr2Dy1.64Ce0.36Cu2O10.26,7.6
Bi1.95Sr1.85La0.2Cu1O4,7.6
Sm1.5Ce0.5Sr2Cu2Nb1O10,7.6
Y0.65Ca0.35Sr2Cu2Ga1O7,7.6
Y0.65Ca0.35Sr2Cu2Ga1O6.99,7.6
Y0.65Ca0.35Sr2Ga1Cu2O7,7.6
La1.2Ba1.8Cu3O7.2,7.6
La1.2Ba1.8Cu3O7.3,7.6
Nd2Cu1O4,7.6
Nd2Cu1F0.24O3.76,7.6
La1.85Sr0.06Ca0.05Ba0.04Cu1O4,7.6
La1.84Ba0.16Cu1O4,7.6
Ba0.6K0.4Bi1O3,7.6
La1.9Sr0.1Cu1O4,7.6
La1.888Sr0.112Cu1O4,7.6
La1.875Sr0.125Cu1O4,7.6
La0.95Pr0.85Sr0.2Cu1O4,7.6
Tl1Sr1.2La0.8Cu1O5,7.6
La1.785Nd0.1Sr0.115Cu1O4,7.6
La1.775Nd0.1Sr0.125Cu1O4,7.6
La1.2Ba1.5Ca0.3Cu3O6.72,7.6
La1.85Sr0.15Cu1O4,7.6
La1.79Sr0.21Cu1O4,7.6
Bi1.6Sr0.4Yb0.75Ca0.25Cu3O6.072,7.6
La1.8Sr0.2Cu0.99Zn0.01O4,7.6
La1.8Sr0.2Cu0.993Zn0.007O4,7.6
La0.55Ca0.15Pr0.3Ba1.5Sr0.5Cu3O6.851,7.6
La1.88Sr0.12Cu1O4,7.58
Ca1.82Na0.18Cu1Cl2O2,7.574
K1Rb2C60,7.56
Mg1B1.9C0.1,7.56
Y1Sr2Nb0.9Cu2.1O7.9,7.56
La1.905Ba0.095Cu1O4,7.55
La1Fe1As1O0.6,7.55
Sr1Fe2As2,7.55
Pr0.88La1Ce0.12Cu1O3.908,7.54
Mo1Sr2Ho1Cu2O8,7.54
Sm1Fe1As1F0.14O0.86,7.54
La1Fe1As1F0.11O0.89,7.53
Ca4Al2Fe2As2O5.785,7.53
Sr1Fe2As1.3P0.7,7.53
Sr1Fe2As1.2P0.8,7.52
Ba1Fe1.7Ir0.3As2,7.52
Fe2As2Sr4V2O6,7.52
La1Fe1As1F0.1O0.9,7.52
La1Fe1As0.6P0.4F0.1O0.9,7.51
La1Fe1As1F0.11O0.89,7.51
Eu1Fe2As2,7.5
La0.34Na0.66Fe2As2,7.5
La0.2Na0.8Fe2As2,7.5
Ca10Pt4.3Fe9.7As18,7.5
La1.9Ba0.1Cu1O4,7.5
La1.836Sr0.164Cu0.99Ga0.01O4,7.5
La1.5Ba1Sr0.5Cu3O6.955,7.5
Ca1.76Na0.24Cu1Cl2O2,7.5
La1.83Ba0.17Cu1O4,7.5
La1.9Sr0.1Cu1O4,7.5
Ca8.77Pr1.23Pt3Fe10As18,7.5
La1Fe1P0.6As0.6F0.1O0.9,7.5
Y1Ba2Cu3O6.45,7.5
La1.75Sr0.25Cu1H0.1O4,7.5
La1.85Sr0.15Cu0.975Ni0.025O4,7.5
Sm1Fe1As1F0.14O0.86,7.5
Ca4Al2Fe2As2O5.65,7.5
Sr1Fe2As1.08P0.92,7.5
Ca4Al2Fe2As2O6,7.5
Ba0.5K0.5Fe1.9Ni0.1As2,7.5
Nd0.95Pr0.05Ba2Cu3O6.65,7.5
Eu0.5Pr0.5Ba2Cu3O7,7.5
La1.8Nd0.2Cu1O4.059,7.5
Mg0.7Al0.3B2,7.5
Ba1Fe2As0.76P1.24,7.5
La0.8Y0.2Fe0.995Mn0.005As1F0.11O0.89,7.5
Rb1Eu1Fe4As4,7.5
Sr2Cu1C0.91B0.09O5,7.5
Bi1.95Sr1.65La0.4Cu1O6.343,7.5
Nd1.45Ba1.55Cu3O7.08,7.5
Sm1Ba1.8Pr0.2Cu3O7.04,7.5
La1.885Sr0.115Cu0.965Li0.035O4,7.5
La1.81Sr0.19Cu0.99Ru0.01O4,7.5
Ca1.75Na0.25Cu1Cl2O2,7.5
La1.834Sr0.166Cu0.99Zn0.01O4,7.5
La1.83Sr0.17Cu0.94Fe0.06O4,7.5
Ca10Pt4.054Fe9.7As18,7.5
La1.87Sr0.13Cu0.995Zn0.005O4,7.5
Y1Ba2Cu3O6.43,7.5
La1.87Sr0.125Cu1.07O4,7.5
Nd1.85Ce0.15Cu1O4,7.5
Ca0.1Ba1.65La1.25Cu3O7.02,7.5
La1.8Sr0.2Cu0.99Zn0.01O4,7.5
La1.85Sr0.15Cu0.99Zn0.01O4,7.5
Ba0.6K0.4Bi0.99Pr0.01O3,7.5
Ca1.8Na0.2Cu1Cl2O2,7.5
Rb2K1C60,7.5
La1.81Sr0.19Cu0.94Ni0.06O4,7.5
La1.73Nd0.12Sr0.15Cu1O4,7.49
La1.895Sr0.105Cu1O4,7.49
La1.8Nd0.2Cu1O4.04,7.49
La1Fe1As1F0.05O0.95,7.49
Sr1Fe2As2,7.46
La1Fe1As1F0.11O0.89,7.46
Ba1Fe1.84Co0.16As2,7.46
La1.85Sr0.15Cu0.993Fe0.007O4,7.46
Tl0.4K0.3Fe1.7Se2,7.46
Tl0.4K0.3Fe2Se2,7.45
Rb0.8Fe2Se1.9Te0.1,7.45
Sm1.35Ba1.65Cu3O7.07,7.45
La1.9Sr0.1Cu1O4,7.45
La1.9Sr0.1Cu1O4,7.445
Y1Ba2Cu2.95Fe0.05O6.6,7.44
La1.9Sr0.1Cu1O4,7.44
Y0.5Pr0.5Sr2Cu2.85Re0.15O7,7.42
Ba0.66K0.34Bi1O3,7.42
Mg1B1.5C0.5,7.42
Sr2Mg0.5Ti0.5Fe0.95Co0.05As1O3,7.41
La1Fe1As1F0.15O0.85,7.41
Ca9.29Sm0.71Pt3Fe10As18,7.4
Bi1.8Pb0.2Sr2Ca1Cu1.84Fe0.16O8,7.4
La1.84Ba0.16Cu1O4,7.4
La1.8Sr0.2Cu0.995Zn0.005O4,7.4
La1.85Sr0.15Cu0.96Ti0.04O4,7.4
Mg0.6Al0.2Li0.2B2,7.4
Ca8.55La1.45Pt3Fe10As18,7.4
Ca0.74La0.26Fe1As2,7.4
La1Fe1As0.6P0.4F0.14O0.86,7.4
La1Fe1As0.5P0.5F0.14O0.86,7.4
Gd1Sr2Ru0.95Cu2.05O8,7.4
La2.6Ba3.4Cu6O14.06,7.4
La1.9Sr0.1Cu1O4,7.4
Bi1Pb1Sr1.26La0.26Cu1O6,7.4
La1.903Ba0.097Cu1O4,7.4
Y1Sr2Cu2.7Ti0.3O6.7,7.4
Nd2Cu1F0.3O3.7,7.4
Bi1.95Sr1.85Nd0.2Cu1O4,7.4
Ca1.883Cu0.941Cl1.941Na0.059O2.117,7.4
Ca1.808Cu0.904Cl1.904Na0.096O2.192,7.4
Sr1.5Ba0.5Y1Cu2.8Mo0.2O7.03,7.4
Y1Ba2Cu3O6.409,7.4
Nd0.75Pr0.25Ba1Ca1Cu3O7,7.4
Sm1La0.8Sr0.2Cu1O3.945,7.4
La1.92Ba0.08Cu1O4,7.4
Y0.6Pr0.4Ba2Cu3O6.61,7.4
Sm0.8Pr0.2Ba2Cu3O6.85,7.4
La1.9Ba0.1Cu1O4,7.4
La1.845Ba0.155Cu1O4,7.4
Ru0.92Ce0.58Sr1.7Eu1.8Cu2O10,7.4
Tl1Sr0.4Ca0.6La1Cu1O5,7.4
H0.55La1.8Sr0.2Cu0.995Fe0.005O4,7.4
Ca1.9Na0.1Cu1Cl2O2,7.4
Tl1.75Ba2Cu1.2O5.98,7.4
Hg1Ba2Cu1O4.39,7.4
Y1Ba2Cu2.68Fe0.32O6.999,7.4
La1.775Nd0.125Sr0.1Cu1O4,7.4
La1.765Nd0.125Sr0.11Cu1O4,7.39
La1.35Ca0.15Nd0.5Cu1O4,7.39
La1.875Ca0.125Cu1O4,7.39
Y1Ba2Cu2.94Li0.06O6.6,7.39
Eu0.7Ca0.3Ba2Cu3O6.13,7.388
La1.985Sr0.015Cu1O4.032,7.38
La0.6Ca0.1Pr0.3Ba1.5Sr0.5Cu3O6.872,7.38
Ca1.825Na0.175Cu1Cl2O2,7.38
Pr0.89La1Ce0.11Cu1O3.98,7.37
Li0.5Hf1N1Cl1,7.355
La1F0.05Fe1As1O0.95,7.352
La1Fe1As1F0.1O0.9,7.35
La1Fe1As1F0.11O0.89,7.34
La1Fe1As1F0.1O0.9,7.34
Eu1Fe2As1.4P0.6,7.34
Ba0.75K0.25Fe2As2,7.333
Mo1Sr2Y0.8Ca0.2Cu2O8,7.33
Fe2As2Sr4Mg0.8Ti1.2O6,7.33
Eu1Fe2As1.46P0.54,7.33
Sr2V1Fe1As1O3,7.32
Na0.86Fe1As1,7.32
Na1Fe1As1,7.32
Ba0.76K0.24Fe2As2,7.315
Ca0.82Pr0.18Fe1As1.98Sb0.02,7.31
Ca7.62La2.38Pt3Fe10As18,7.31
La1Fe1As0.8P0.2F0.1O0.9,7.31
Ba1Cs1Fe4As4,7.31
La0.85Y0.15Fe0.995Mn0.005As1F0.11O0.89,7.31
La0.15Na0.85Fe2As2,7.3
Ba0.525K0.475Bi1O2.917,7.3
La1.78Sr0.22Cu1O4,7.3
La1.85Sr0.15Cu0.985Ni0.015O4,7.3
La0.87Sr0.13Fe1As1O1,7.3
La1Fe1As1F0.08O0.9,7.3
La2Cu1O4.03,7.3
Y0.8Ca0.2Ba2Cu3O6.32,7.3
La1Fe1As1F0.1O0.9,7.3
Ba1Fe1.82Ru0.18As2,7.3
Sr1.9Ca0.1V1Fe1As1O3,7.3
Ba0.7Na0.3Fe2As2,7.3
Y1Ba2Cu3.88Zn0.12O8,7.3
Eu2.17Ce0.5Sr1.33Cu2.5Fe0.5O9.23,7.3
La1.95Bi0.05Cu1O4.075,7.3
Mg0.82Al0.18B2,7.3
Mg0.815Al0.18B2,7.3
La1.825Ba0.175Cu1O4,7.3
La0.8Y0.2Fe0.995Mn0.005As1F0.11O0.89,7.3
Ca1Fe1As1F1,7.3
La1Fe1As0.8P0.2F0.05O0.95,7.3
Y1La2Ba3Cu6O14.53,7.3
Ba0.55K0.45Bi1O3,7.3
Sm0.8Pr0.2Ba2Cu3O6.7,7.3
La1.8Sr0.2Cu0.99Zn0.01O4,7.3
Ba0.57K0.43Bi1O2.983,7.3
La1.8Nd0.2Cu1O4.093,7.3
Mg0.55Al0.225Li0.225B2,7.3
Mg0.8Al0.2B2,7.29
Mg0.854Au0.146B2,7.29
Ba0.64K0.36Fe2As2,7.28
La0.9Y0.1Fe1As1O0.6,7.28
La1Fe0.97Ru0.03As1F0.11O0.89,7.28
Ba0.6K0.4Bi1O3,7.28
La1.85Sr0.15Cu0.992Zn0.008O4,7.28
La1.823Ba0.177Cu1O4,7.268
Ba0.6K0.4Bi1O3,7.25
La1.8Sr0.2Cu0.995Fe0.005O4,7.25
La1.76Nd0.125Sr0.115Cu1O4,7.25
La1.76Nd0.125Sr0.115Cu1O4,7.241
Ba0.553K0.447Bi1O3,7.24
La1.9Pr0.1Ca0.2Ba2Cu4.2O9.879,7.23
Ru0.99Co0.01Sr2Gd1Cu2O8,7.225
Hf1N1Cl1,7.22
Mg1B1.792C0.208,7.22
La1.85Sr0.15Cu0.985Ni0.015O4,7.214
La1Fe1As1F0.05O0.95,7.214
La0.89Sr0.11Fe1As1O1,7.213
Cs0.86Fe1.66Se2,7.21
La1Fe0.98Zn0.02As1F0.1O0.9,7.21
Rb0.8Fe2Se1.7Te0.3,7.2
La1Fe0.8Zn0.2As1F0.15O0.85,7.2
La0.4Na0.6Rb1Fe4As4,7.2
Y0.6Pr0.4Ba2Cu3O6.66,7.2
La1.85Sr0.016Ca0.074Ba0.06Cu1O4.01,7.2
La1Fe1As1F0.05O0.95,7.2
La0.85Sr0.15Fe1As1O1,7.2
Ba1Fe1.8Co0.2As2,7.2
La1Fe1As1F0.13O0.87,7.2
La1Fe0.95Zn0.05As1F0.1O0.9,7.2
Y1Ba2Cu3.9Zn0.1O8,7.2
La1.843Ba0.157Cu1O4,7.2
Mg0.815Al0.185B2,7.2
Li1Hf1N1Cl1,7.2
Ba0.8K0.2Fe2As2,7.2
Ba1Fe2As1.18P0.82,7.2
La0.8Y0.2Fe0.99Mn0.01As1F0.11O0.89,7.2
La1Fe1P0.6As0.8F0.1O0.9,7.2
Nd1.55La0.3Ce0.15Cu1O4,7.2
La1.9Sr0.1Cu1O4,7.2
Pb0.6Cu1Sr0.8La1.2O5.29,7.2
Pb0.5Cu1Sr0.8La1.2O5.25,7.2
Y0.7Pr0.3Ba2Cu3O6.75,7.2
Pr0.91La1Ce0.09Cu1O4,7.2
La1.85Sr0.15Cu0.99Co0.01O4,7.2
La1Fe1As1F0.07O0.93,7.2
Ba1Fe1.9Pt0.1As2,7.2
Eu0.7Na0.3Fe2As1.4P0.6,7.2
La1Fe1As1F0.1O0.9,7.2
Nd1Fe1As0.5P0.5F0.1O0.9,7.2
Y0.77Ca0.23Ba2Cu3O6,7.2
Y1Ba2Cu3.92Ni0.08O8,7.2
Ca0.2Ba1.55La1.25Cu3O7.01,7.2
Bi1.95Sr1.65La0.4Cu1F0.6O5.6,7.2
Pb0.6Cu1Sr1La1O5.19,7.2
Pb0.6Cu1Sr1La1O5.21,7.2
La1.8Nd0.2Cu1O4.064,7.2
Mg0.7Al0.15Li0.15B2,7.2
Mg0.7Li0.15Al0.15B2,7.2
Pr4Fe2As2Te0.88O4,7.2
Na0.65Fe1.93Se1.4S0.6,7.2
Rb0.8Fe2Se1.8Te0.2,7.2
Ca0.73La0.27Fe1As2,7.2
La1.84Sr0.16Cu0.987Ni0.013O4,7.2
Y0.8Pr0.2Ba2Cu2.7Fe0.3O7.1,7.2
Bi1.4Pb0.6Sr1.4Ca1Nd0.6Cu2O8.22,7.195
Pb0.5Sr1.8Ba0.2Y0.85Ca0.15Cu2.5O6.98,7.194
Nd2Cu1F0.3O3.7,7.193
Y1Ba2Cu2.775Zn0.225O6.93,7.19
Y1Sr1Ba1Cu2.5B0.5O7,7.19
Sr2Cu1C0.92B0.08O5,7.186
Tl3Cr1Sr8Cu4O20,7.181
Sr1.5Ba0.5Y1Cu2.8Ge0.2O7,7.181
Pb0.6Cu1Sr1.1La0.9O5.19,7.18
Ba1.6Sr0.4Yb0.75Ca0.25Cu3O6.19,7.18
Y0.74Ca0.16Sr2.1Cu2.78S0.22O7,7.18
La1.92Ba0.08Cu1O4,7.18
Sm1La0.8Sr0.2Cu1O3.94,7.18
La2.3Yb0.1Ba2.3Ca0.2Cu5O11.805,7.175
La1.913Sr0.087Cu1O4,7.175
La1.01Pr0.85Sr0.14Cu1O4,7.175
Tl1Ba0.3Sr0.7La1Cu1O5.11,7.175
La1.4Ba1.5Ca0.1Cu3O6.903,7.175
La1.5Ba1.4Ca0.1Cu3O6.932,7.173
La1.5Ba1.3Ca0.2Cu3O6.918,7.172
La1.5Ba1.1Ca0.4Cu3O6.764,7.17
La1.825Sr0.175Cu0.985Ni0.015O4,7.17
Y1Ba2Cu3.925Zn0.075O8,7.17
La1.85Sr0.15Cu1O4,7.17
La1.83Sr0.17Cu0.99Zn0.01O4,7.17
La1.82Sr0.18Cu0.99Zn0.01O4,7.16
Y1Ba1.75Cu2.75Co0.25O6.95,7.15
Er1Ba2Cu2.76Zn0.06Fe0.18O6.97,7.15
Y1Ba2Cu2.95Zn0.05O6.63,7.15
Y1Ba2Cu2.95Zn0.05O6.69,7.15
Y1Ba2Cu2.95Zn0.05O6.7,7.15
Tl2Ba2Cu1O6,7.15
Y1Ba2Cu2.94Zn0.06O6.68,7.14
Y1Ba2Cu2.91Zn0.09O6.73,7.135
La1.25Ca0.15Nd0.6Cu1O4,7.134
Nd1.5Ce0.5Sr2Ta1Cu2O10,7.13
Ba0.557K0.443Bi1O3,7.13
Nd1.85Ce0.15Cu1O4.014,7.124
La1.89Ce0.11Cu1O4,7.12
Ga1Sr2Y0.7Ca0.3Cu2O7,7.12
Ca1.875Na0.125Cu1Cl2O2,7.12
Ca1.85Na0.15Cu1Cl2O2,7.12
Ba1.34Eu2Ce0.66Cu3O9.02,7.11
Ca1.85Na0.15Cu1Cl2O2,7.11
Y0.38Ba1.74La0.88Cu3O6.95,7.11
Ca1,7.109
Mg0.8Al0.2B2,7.1
La1.425Nd0.4Sr0.175Cu1O4,7.1
Bi0.1Pb0.4La1.3Sr1.2Cu2O5.83,7.1
Bi0.1Pb0.4La1.4Sr1.1Cu2O5.84,7.1
La1.925Ce0.075Cu1O4,7.1
La1Fe1As1F0.11O0.89,7.1
La1Fe0.988Co0.013As1F0.11O0.89,7.1
La1.782Sr0.218Cu1O4,7.1
La1.9Sm0.1Cu1O4,7.1
La1.7Sm0.3Cu1O4,7.1
Ba1Fe1.85Co0.15As2,7.1
Eu1Fe2As2,7.1
Ca0.4Na0.6Fe2As2,7.1
Sr1Fe2As1.4P0.6,7.1
Ca1.843Na0.157Cu1Cl2O2,7.1
La1Fe1As1O0.85,7.1
Ba1Fe1.87Co0.13As2,7.1
Ba1Fe1.89Co0.11As2,7.1
La1Fe1As1F0.2O0.8,7.1
Eu1Fe2As1.7P0.3,7.1
Pr4Fe2As2Te0.88O4,7.1
Sm4Fe2As2Te0.92O4,7.1
Gd4Fe2As2Te0.9O4,7.1
Ca0.79La0.21Fe1As2,7.1
Ca8.03Pr1.97Pt3Fe10As18,7.1
Ca9.06Gd0.94Pt3Fe10As18,7.1
Mg0.3Hf1N1Cl1,7.1
La1Fe1Mn0As1F0.11O0.89,7.1
Ba1Fe2As1.34P0.66,7.1
La0.9Y0.1Fe0.995Mn0.005As1F0.11O0.89,7.1
La0.8Y0.2Fe0.992Mn0.008As1F0.11O0.89,7.1
Pb0.5Cu1Sr0.9La1.1O5.22,7.1
La1.89Ce0.11Cu1O4,7.1
Mg1B1.6C0.4,7.093
Ba1Fe1.886Rh0.114As2,7.091
La0.8Sr0.2Fe1As1O1,7.09
La1.943Sr0.115Cu1O4,7.075
La1Fe1As1F0.05O0.95,7.07
Sr1Fe2As1.22P0.78,7.07
Bi1Ga1Sr1.8Ca1.2Cu2O8,7.07
Ca0.4Ba1.35La1.25Cu3O6.95,7.07
La1Fe1As1F0.05O0.95,7.061
Ba1Fe1.85Co0.15As2,7.06
Sr2V1Fe1As1O3,7.06
Ba0.78K0.22Fe2As2,7.06
Ba0.35K0.65Fe2As2,7.055
As3Pd5,7.05
La1.85Sr0.15Cu0.992Fe0.008O4,7.05
La1.855Sr0.145Cu0.99Zn0.01O4,7.05
La1.885Sr0.115Cu1O4,7.05
Sm1Fe1As1F0.13O0.87,7.05
La1.78Sr0.22Cu1O4,7.04
Hg1Ba2Cu1O4.39,7.035
Sm1La0.8Sr0.2Cu1O3.94,7.03
Pr0.89La1Ce0.11Cu1O4,7.03
La1.825Ba0.175Cu1O4,7.025
La0.9Sr0.1Fe1As1O1,7.02
La1.943Sr0.089Cu1O4,7.02
La1Fe0.4Zn0.6As1F0.15O0.85,7.01
Ba1Fe2As1.34P0.66,7.01
La1.8Sr0.2Cu0.99Ni0.01O4,7.007
Nd2Cu1F0.22O3.78,7.007
Cu2V0.25Sr2Y1.3Ce0.7O8.77,7
La1.89Sr0.11Cu1O4,7
La1.05Ca0.15Nd0.8Cu1O4,7
Mg0.764Au0.236B2,7
Nd1.85Ce0.15Cu1O4,7
Ba1Fe1.6Ir0.4As2,7
K0.8Fe1.7S1Se1,7
Ba1Fe2As1.46P0.54,7
Ba0.39K0.61Fe2As2,7
Yb0.7Ca0.3Ba1.6Sr0.4Cu3O6.78,7
La1.91Sr0.09Cu1O4,7
Rb2K1C60,7
Sr0.8La0.2Fe1As1F1,7
Ba0.77K0.23Fe2As2,7
Ho0.5Pr0.5Ba2Cu3O6.67,7
La1.895Ce0.105Cu1O4,7
La1.88Ce0.12Cu1O4,7
La1Fe1As1F0.15O0.85,7
Ba1Fe1.885Co0.115As2,7
La1Fe1As1F0.1O0.9,7
Ba1Fe2As0.9P1.1,7
La1.9Sr0.1Cu1O4,7
La1Fe1As0.4P0.6F0.05O0.95,7
Nd1.5Ce0.5Sr2Cu2Nb1O10,7
La1.82Ba0.18Cu1O4,7
Y1Ba2Cu2.79Zn0.21O7,7
La1.95Bi0.05Cu0.99Zn0.01O4.063,7
Pr1.85Ce0.15Cu1O4,7
Ru0.6Sn0.4Sr2Eu1Cu2O8,7
Sr1Fe1.57Ir0.43As2,7
Ba0.3Na0.7Fe2As2,7
Li0.8Fe1.2Se0.47S0.53H1O1,7
La1.85Sr0.15Cu0.99Ga0.01O4,7
Y0.4Pr0.6Ba1Sr1Cu3O8.9,7
Pb0.5Cu1Sr1La1O5.19,7
Li1Hf1N1Br1,7
La0.9Y0.1Fe0.995Mn0.005As1F0.11O0.89,7
Nd1.85Ce0.15Cu1O3.93,7
Ba0.5K0.5Bi1O3,7
Bi2Sr2Ho1.64Ce0.36Cu2O10.22,7
Bi1Pb1Sr1.2La0.2Cu1O6,7
La1Ba1Ca1Cu2.6Ni0.4O6.854,7
Sr0.84Nd0.16Cu1O2,7
Y1Sr2Cu2.7W0.3O6.9,7
Y1Sr1.4Ba0.6Cu2.5B0.5O7,7
Bi1.95Sr1.45La0.6Cu1O4,7
Tl1.7Ba2Cu1O6,7
Eu1.5Ce0.5Sr2Cu2Nb1O10,7
La1.65Sm0.15Sr0.2Cu1O4,7
Y0.8Ca0.2Ba2Cu3O6,7
Ca0.85K0.15Cu1Cl2O2,7
Ca1.8K0.2Cu1Cl2O2,7
Ca0.75K0.25Cu1Cl2O2,7
Ca1.7K0.3Cu1Cl2O2,7
Nd1.32Sr0.41Ce0.27Cu1O4,7
Bi1.95Sr1.65La0.4Cu1O6.347,7
Cu2Co0.25Sr2Y1.3Ce0.7O8.43,7
Pb0.5Tl0.5Sr4Cu2C0.5N0.5O10,7
La1.85Sr0.03Ca0.066Ba0.054Cu1O4,7
Al1Sr2Ho0.4Ca0.6Cu2O7,7
Tl1Sr2Ca1Cu2O6.85,7
Sm1La0.8Sr0.2Cu1O4,7
Tl1Ba1.4La0.6Cu1O5,7
Hg0.5Fe0.5Sr2Y0.7Ca0.3Cu2O6.7,7
Sm1Ba2Cu2.7Ni0.3O6.97,7
La1.92Sr0.08Cu1O4,7
La1.825Sr0.175Cu1O4,7
La1.815Sr0.185Cu0.99Zn0.01O4,7
Y1Ba2Cu2.919Zn0.081O6.8,7
Bi2Sr1.76La0.24Cu1O6,7
Y1Ba2Cu2.95Zn0.05O6.56,7
La1.88Ca0.12Cu1O4,7
La0.8Pr0.2Ba1.5Sr0.5Cu3O6.906,7
Pr0.85La1Ce0.15Cu1O4,7
Ca2Cu1Cl2.18O2,7
Ca1.65Na0.35Cu1Br1Cl1O2,7
Mg1B0.85C0.15,7
Pr0.91La1Ce0.09Cu1O4,7
La1.79Sr0.21Cu0.97Ru0.03O4,7
Y1Pd4.2B3C0.3,7
K2Cs1C60,7
Mg0.71Al0.29B2,7
Mg1B1.85C0.15,7
Bi0.3Pb0.2La1.5Sr1Cu2O5.94,7
La1.925Ba0.075Cu1O4,6.99
Pr0.88La1Ce0.12Cu1O3.934,6.98
Ba1Fe1.878Co0.122As2,6.98
Ba1Fe1.8Co0.2As2,6.98
Ba0.77K0.23Fe2As2,6.97
La1Fe1As1O0.85,6.97
Eu0.5Ca0.5Fe2As2,6.97
La1Fe0.988Co0.013As1F0.11O0.89,6.95
Fe1.8Co0.2As2Sr4Mg1Ti1O6,6.95
Hf1N1Cl0.7,6.95
Ca0.81Nd0.19Fe1As1.98Sb0.02,6.95
Sr2V1Fe1As1O3,6.95
La1Fe1As0.4P0.6F0.05O0.95,6.95
Ba0.737K0.263Fe2As2,6.95
Rb0.75Fe1.6Se1.75S0.25,6.95
Ba0.3Na0.7Fe2As2,6.95
La0.4Cs0.6Rb1Fe4As4,6.95
Ba1Fe2S3,6.94
Y1Ba2Cu3O6.38,6.94
Pr1.85Ce0.15Cu1O4,6.93
La1Fe0.2Zn0.8As1F0.15O0.85,6.93
La1Fe1As1H0.4O0.6,6.93
Ca0.8La0.2Fe0.98Co0.02As2,6.93
La1.85Sr0.15Cu0.965Ni0.035O4,6.92
Ca1Fe0.9Co0.1As1F1,6.92
Ba0.7Na0.3Fe2As2,6.91
Ba0.68Na0.32Fe2As2,6.91
La1.9Sr0.1Cu0.998Zn0.003O4,6.91
La1.85Sr0.15Cu0.98Ni0.02O4,6.9
Y0.6Pr0.4Ba2Cu3O6.76,6.9
La1.8Nd0.05Ca0.074Ba0.076Cu1O4.01,6.9
La1Fe1As1F0.1O0.9,6.9
La1.85Sr0.15Cu0.988Zn0.012O4,6.9
La1Fe0.9Ru0.1As1F0.11O0.89,6.9
Ca9.16Tb0.84Pt3Fe10As18,6.9
Nd1.85Ce0.15Cu1O4,6.9
La1.877Ba0.123Cu1O4,6.9
La1.8Sr0.2Cu0.988Zn0.012O4,6.9
La1.9Sr0.1Cu0.998Zn0.003O4,6.9
Pr1.85Ce0.15Cu1O4,6.9
Pr1.96Ce0.04Cu1O4,6.9
Li1Hf1N1Cl0.75Br0.25,6.9
Ba0.8K0.2Fe2As2,6.9
La1Fe0.85Ru0.15As1F0.11O0.89,6.9
La1Fe1As0.9P0.1F0.05O0.95,6.9
Y1Ba2Cu3O6.34,6.9
La1.801Ba0.199Cu1O4,6.9
Y0.7Zn0.3Ba2Cu3O7,6.9
Y0.55Pr0.45Ba2Cu3O6.8,6.9
Ba0.5K0.5Bi1O3,6.9
La1.85Sr0.016Ca0.074Ba0.06Cu1O4,6.9
Ba0.6K0.4Bi0.979Pr0.021O3,6.9
Ru1Sr2Gd0.91Nd0.09Cu2O8,6.9
Ru1Sr2Eu1Cu2O8,6.9
La1.87Ce0.13Cu1O4,6.9
Ca1.7Na0.3Cu1Br1Cl1O2,6.89
Mg0.8Al0.2B2,6.88
Ba1Fe1.874Co0.126As2,6.88
Ce1Fe0.95Co0.05As1F0.1O0.9,6.88
Fe2As2Sr4Mg0.9Ti1.1O6,6.88
Nb0.7Fe1.55Se1.01S0.99,6.88
Ba0.78K0.22Fe2As2,6.87
Eu1Fe1.6As2P0.4,6.87
Ca1.85Na0.15Cu1Cl2O2,6.86
La1.8Sr0.2Cu0.99Ni0.01O4,6.86
La1.93Ba0.07Cu1O4,6.86
Sm0.8Pr0.2Ba2Cu3O6.75,6.86
La1.8Ba0.2Cu1O4,6.855
Ba1Fe1.85Pt0.15As2,6.85
Ba1Fe1.874Co0.126As2,6.85
Sm1Fe1As0.5P0.5O1,6.84
Ba1Fe1.852Co0.148As2,6.84
Pr1Fe1As0.6P0.4F0.1O0.9,6.84
Ba0.77K0.23Fe2As2,6.83
Y0.5Pr0.5Ba2Cu3O7,6.82
Y1Ba2Cu3O6.4,6.8
Y1Pd5B3C0.3,6.8
Ba1K1Bi1O3,6.8
Pr1.85Ce0.15Cu1O4,6.8
La1Fe1As1F0.05O0.95,6.8
Ba1Fe1.884Co0.116As2,6.8
Sm1Fe0.95Zn0.05As1F0.2O0.8,6.8
Ba0.5K0.5Fe1.96Mn0.04As2,6.8
Sr1Fe2As1.3P0.7,6.8
Ba0.9Rb0.1Fe2As2,6.8
Ba1Fe2As1.52P0.48,6.8
Ca8.9La1.1Pt3Fe10As18,6.8
Ba1Fe1.864Rh0.136As2,6.8
K1Ca2Fe4As4F2,6.8
Bi2Sr1.6La0.4Cu1O6.32,6.8
Rb2.7Tl2.2C60,6.8
Mg0.98Mn0.02B2,6.8
La1.85Sr0.15Cu0.989Zn0.011O4,6.8
Ca1Fe0.88Co0.12As1H1,6.8
Ba1Fe2As1.34P0.66,6.8
La1.85Sr0.15Cu0.992Co0.008O4,6.8
Bi2Sr1.6Nd0.4Cu1O6.32,6.8
Sm0.7Pr0.3Ba2Cu3O6.95,6.8
Ba0.542K0.458Bi1O3,6.8
La0.8Na0.2Fe1As1F0.2O0.8,6.8
Ba0.65K0.35Bi1O3,6.8
La1.775Sr0.225Cu1O4,6.8
Y1Ba2Cu2.94Ni0.06O6.47,6.8
Nd1.25La0.6Ce0.15Cu1O4,6.8
Bi1.6Pb0.4Sr1.6La0.4Cu1O6.082,6.8
Sm1.5Ce0.5Sr2Cu2Nb1O10,6.8
Eu1.5Ce0.5Sr2Cu2Nb1O10,6.8
Y0.3Pr0.7Ba2Cu4O8,6.8
Y1Sr2Cu2.7Ti0.3O7.152,6.8
Y1Ba2Cu2.9Zn0.1O6.93,6.79
Sr1.6K0.4Cu1C1O5,6.79
Y0.4Pr0.6Ba0.75Sr1.25Cu3O6.92,6.79
Tl1Sr2Ca1Cu2O6.52,6.78
Sr2Cu1C0.93B0.07O5,6.78
Bi1.95Sr1.65La0.4Cu1O6.36,6.78
Ba1.6Sr0.4Yb0.75Ca0.25Cu3O6.19,6.778
Tl0.5Pb0.5Sr4Cu2C7.75O23.25,6.77
La1.562Nd0.288Ca0.106Ba0.044Cu1O4,6.76
Ba1K1Bi1O4,6.76
Ba0.54K0.46Bi1O3,6.76
La1.85Nd0Ca1.15Cu2O5.99,6.76
Sr2Y1Ru0.8Cu0.2O6,6.75
La1.788Sr0.213Cu1O4,6.75
Nd1Ba2Cu2.85Ga0.15O6.62,6.75
Y1Ba2Cu2.94Zn0.06O6.7,6.75
Y1Ba2Cu2.91Zn0.09O6.75,6.75
La1.85Sr0.15Cu1O4,6.75
Nd2Cu1F0.4O4,6.75
La1Cu1O4,6.74
La1.9Sr0.1Cu1O4,6.73
Er1Ba2Cu2.7Zn0.12Fe0.18O6.95,6.73
Y1Ba2Cu2.95Zn0.05O6.52,6.72
La0.85Ca0.15Nd1Cu1O4,6.72
La1.89Ca0.11Cu1O4,6.72
La1.885Ca0.115Cu1O4,6.72
La1.562Nd0.288Ca0.106Ba0.044Cu1O3.98,6.72
Mo1Sr2Eu1.5Ce1Cu2O10,6.72
Pr1.85Ce0.15Cu1O4,6.72
Ru0.9Sr2Er1Cu2O7.8,6.71
Y0.4Pr0.6Ba1Sr1Cu3O7,6.71
Ca1.825Na0.175Cu1Br1Cl1O2,6.7
Y1Pd5B3C0.3,6.7
K2Rb1C60,6.7
Na0.28Hf1N1Cl1,6.7
La1Fe1As1F0.11O0.89,6.7
Ba1Fe1.852Co0.148As2,6.7
Ca1Fe0.9Co0.1As1F1,6.7
Sr1Fe2As2,6.7
Ba1Fe1.68Ru0.32As2,6.7
La1Fe1As1F0.1O0.9,6.7
Ba1Fe1.9Pt0.1As2,6.7
Eu0.5K0.5Fe1.94Ni0.06As2,6.7
Pr2Ba4Cu7O14.21,6.7
Ca1Fe0.93Co0.07As1H1,6.7
Ce1Fe0.93Co0.07As1H1,6.7
Ce1Fe0.91Co0.09As1H1,6.7
Ce1Fe0.88Co0.12As1H1,6.7
Rb1Eu1Fe3.8Ni0.2As4,6.7
Nd1.85Ce0.15Cu1O4,6.7
La1.922Ba0.078Cu1O4,6.7
Nd1.86Ce0.14Cu1O4,6.7
Gd1Ba1.7Pr0.3Cu3O7.06,6.7
Mg0.8Al0.2B2,6.7
La1.85Sr0.15Cu0.988Co0.013O4,6.7
Ba1Fe1.85Co0.15As2,6.7
La1.9Sr0.1Cu1O4,6.7
La1.83Sr0.17Cu0.98Ni0.02O4,6.7
B2Mg1,6.7
Ba1Fe1.884Co0.116As2,6.7
La1.85Sr0.15Cu0.983Zn0.017O4,6.7
Tb1Fe1As1O0.9,6.7
Ba0.82K0.18Bi0.53Pb0.47,6.69
La1Fe1As1F0.08O0.92,6.69
La1Fe1Mn0As1F0.11O0.89,6.68
La1.95Bi0.05Cu0.99Zn0.01O4.093,6.66
Sm1.86Ce0.14Cu1O4,6.66
Li1Hf1N1Cl0.525Br0.475,6.66
Ba1Fe1.884Co0.116As2,6.65
Ca1Fe0.91Co0.09As1H1,6.65
Ba0.86La0.14Fe2As2,6.64
La0.8Y0.2Fe0.992Mn0.008As1F0.11O0.89,6.64
La1.85Sr0.15Cu0.975Ni0.025O4,6.64
Bi2Sr1.3La0.7Cu1O6.422,6.63
La1.84Sr0.16Cu1O4,6.63
La1.934Ba0.066Cu1O4,6.628
Nd1.84Ce0.16Cu1O4,6.62
Y1Pd2B2C1,6.62
Li1Hf0.7Zr0.3N1Cl1,6.62
Ba0.84Rb0.1Sn0.09Fe2As2,6.62
Ca9.26Ce0.74Pt3Fe10As18,6.62
Nd1Fe1As0.4P0.6F0.1O0.9,6.62
La1Fe1Mn0As1F0.11O0.89,6.61
Y1Ba2Cu3O6.41,6.61
Nd1.847Ce0.153Cu1O4,6.61
Nd1.85Th0.15Cu1O4,6.61
Y1Ba2Cu3.7Zn0.3O8,6.6
La1.45Nd0.4Sr0.15Cu1O4,6.6
Ba0.55K0.45Bi1O3,6.6
Pr1.85Ce0.15Cu1O4,6.6
Nd1.85Ce0.15Cu1O4,6.6
La1.91Ce0.09Cu1O4,6.6
Ba1Fe1.852Co0.148As2,6.6
Ba1Fe1.125Ru0.875As2,6.6
La1.85Sr0.15Cu0.982Ni0.018O4,6.6
Ca10Pt4.6Fe9.4As18,6.6
Ca4Al2Fe2As1.6P0.4O6,6.6
Ba1Fe1.86Co0.14As2,6.6
La1.885Sr0.115Cu0.998Zn0.003O4,6.6
La1.92Sr0.08Cu1O4,6.6
Y1Ba2Cu3.9Zn0.1O8,6.6
Pr1.85Ce0.15Cu0.96V0.04O3.98,6.6
Ba1Fe2As1.28P0.72,6.6
Tl1Fe1.7Se2,6.6
Ba0.88La0.12Fe2As2,6.6
La1Fe1As0.75P0.25F0.05O0.95,6.6
La1.85Sr0.15Cu0.988Zn0.013O4,6.6
La1.8Sr0.2Cu1O4,6.6
Pr1.85Ce0.15Cu0.98V0.02O3.98,6.6
Sm1.857Ce0.143Cu1O4,6.6
Ba0.5K0.5Fe1.9Cu0.1As2,6.6
La1.914Sr0.086Cu1O4,6.6
La1.85Sr0.15Cu0.98Ni0.02O4,6.6
Nd1.75Sm0.1Ce0.15Cu1O3.972,6.6
Ba0.51K0.49Bi1O2.974,6.6
Li1Hf1N1I1,6.6
Ba1Fe1.848Rh0.152As2,6.59
Ca1Fe0.92Rh0.08As1F1,6.58
Rb0.8Fe2Se1.75Te0.25,6.58
Ca9.07La0.93Pt3Fe10As18,6.57
Ca9.1La0.9Pt3Fe10As18,6.57
La1.85Sr0.15Cu0.985Zn0.015O4,6.57
Nd1.85Ce0.15Cu1O3.95,6.57
La1.892Ba0.108Cu1O4,6.57
La1.83Sr0.17Cu0.98Ni0.02O4,6.57
Y1Ba2Cu3.9Zn0.1O8,6.57
La1.78Sr0.22Cu1O4,6.56
La1.79Sr0.21Cu0.99Ru0.01O4,6.55
Ge1Nb3,6.55
Mg0.7Al0.3B2,6.55
Nd1.85Ce0.15Cu0.995Mn0.005O4,6.55
La1.85Ca0.15Cu1O4,6.55
Ca8.18La1.82Pt3Fe10As18,6.55
Nd1Fe0.8Ru0.2As1F0.11O0.89,6.55
La0.3Na0.7Fe2As2,6.55
Sr0.2La1.8Cu0.99Cr0.01O4,6.54
Y1Ba2Cu2.7Co0.3O6.88,6.54
Nd1.55La0.3Th0.15Cu1O4,6.54
Nd0.95La0.9Ce0.15Cu1O4,6.54
Bi2Ca2.5Sm0.5Cu2O8.33,6.535
Bi2Sr2Ca0.5Y0.5Cu2O8,6.53
La1.82Sr0.18Cu1O3.967,6.52
Nd1.85Ce0.15Cu1O4,6.52
Y0.57Pr0.43Ba2Cu3O7,6.52
La1.945Rb0.055Cu1O4,6.51
Bi1.95Sr1.45Pr0.6Cu1O4,6.51
Nd1.85Ce0.15Cu1O4,6.5
Y1Ba2Cu2.79Co0.21O7,6.5
Pb0.5Cd0.5Sr2Y0.5Ca0.5Cu2O7,6.5
La2.85Ca0.3Ba2.85Cu6O14.252,6.5
Nd2Cu1F1O4,6.5
Ca1La1Ba1Cu2.76Fe0.24O7,6.5
Ba1.6Sr0.4Yb0.75Ca0.25Cu3O6,6.5
La1.82Ba0.18Cu1O4,6.5
La1.8Nd0.1Ba0.1Cu1O4,6.5
La1.02Pr0.85Sr0.13Cu1O4,6.5
Tl1Ba0.6Sr0.4La1Cu1O5.16,6.5
Hg1Ba2Cu1O4.39,6.5
La1.8Sr0.2Cu1O4,6.5
La1.78Sr0.22Cu1O4,6.5
Y1Ba1.5La0.5Cu3O7.06,6.5
Eu1.5Ce0.5Sr2Cu1Ti1O10,6.5
La1.85Sr0.15Cu0.985Zn0.015O4,6.5
La1.8Sr0.2Cu0.98Zn0.02O4,6.5
La1.9Ca0.1Cu1O4,6.5
Y2Ba4Cu7O14.33,6.5
Pr1.85Ce0.15Cu1O4,6.5
Y1Ba2Cu2.64Co0.36O7.03,6.5
Pr1.85Ce0.15Cu0.99V0.01O3.98,6.5
La1.87Ce0.13Cu1O4,6.5
Ru0.9Ir0.1Sr2Gd1Cu2O8,6.5
Y1Pd3B3C0.3,6.5
Mg1B1.6C0.4,6.5
Mg1B1.8C0.2,6.5
Na0.18Hf1N1Cl1,6.5
Gd1Fe1As1F0.17O0.83,6.5
La1Fe1As1F0.075O0.925,6.5
Ba1Fe1.8Co0.2As2,6.5
Pr0.88La1Ce0.12Cu1O3.947,6.5
Ba1Fe1.84Co0.16As2,6.5
Ba1Fe1.75Co0.25As2,6.5
Ba1Fe2As2,6.5
Ba0.511K0.489Fe1.772Co0.228As2,6.5
Fe1.9Co0.1As2Sr4Mg1Ti1O6,6.5