formula,Tc
Hg0.8Mn0.2Ba2Ca1Cu2O6.2,2.56
C0.3Ba2Ca4Cu5.7O10.34,2.56
Tl2Ba2Ca1Cu2O8,2.56
Tl0.5Pb0.5Sr1.6Ca2.4Cu3O9,2.56
C1Ba3Ca3Cu5O13,2.55
Bi1.7Pb0.3Sr2Ca2Cu3F0.5O9.5,2.55
Tl1.62Ba2Ca2.3Cu3O9.92,2.55
Tl0.25Li0.25Ba2Ca2Cu2.5Si1O7.853,2.55
Tl2Ba2Ca1Cu2O8,2.55
Tl2Ba2Ca1Cu2O7.833,2.55
Tl2Ba2Ca2Cu3O9.964,2.55
Tl1.8Ba2Ca2.2Cu3O9.92,2.55
Tl0.5Pb0.5Sr2Ca2Cu3O9,2.545
Tl0.5Pb0.5Sr2Ca2Cu3O9,2.54
Bi1.8V0.2Sr2Ca2Cu3O2,2.54
Hg0.7Bi0.3Sr2Ca2Cu3O8.15,2.53
Bi2Sr2Ca2Cu3O1,2.53
Tl2Ba2Ca2Cu3O9.877,2.53
Sr2Ca2Cu3F3.2O6.2,2.53
Tl2Ba2Ca1Cu2O8,2.53
Bi1.7Pb0.3Sr2Ca2Cu3F0.2O9.8,2.53
Bi0.9Nd0.05Tb0.05Pb1Sr2Ca2Cu3O10,2.53
Tl0.25Li0.25Ba2Ca2Cu3Si0.5O7.835,2.53
Tl2Ba2Ca1Cu2O7.876,2.53
Tl2Ba2Ca2Cu3O9.841,2.53
Bi1Sr1Ca1Cu1O1,2.53
Ca0.285Sr0.665Cu1O2,2.525
C1Ba3Ca3Cu5O13,2.52
Hg0.8Cr0.2Ba2Ca1Cu2O6.1,2.52
Hg0.8Cr0.2Ba2Ca2Cu3O8.1,2.52
B1Sr2Ca3Cu4O11,2.52
Hg0.5Pb0.5Ba2Ca4Cu5O12.5,2.52
Hg1Ba2Ca2Cu3O8.22,2.52
Tl1Ba2Ca2Cu3O9,2.52
Ca0.27Sr0.63Cu1O2,2.52
Sr0.7Ca0.3Cu1O2,2.52
Hg1Tl1Ba2Ca3Cu4O12,2.52
Hg1Ba2Ca1Cu2O6.27,2.52
Tl0.5Ba2Ca1Be2Cu4.5O9.948,2.52
Tl2Ba2Ca1Cu1.98Fe0.02F0.1O7.95,2.51
Bi2Sr2Ca2Cu3O10,2.51
La1.9Sr0.1Cu0.99Zn0.01O4,2.51
Lu0.75Th0.25Rh4B4,2.51
Pr1.85Ce0.15Cu0.995Ni0.005O4.065,2.51
Sm0.7Pr0.3Ba2Cu3O6.95,2.51
La1.89Ba0.11Cu1O4,2.51
Sr2Y1Ru0.95Cu0.05O6,2.51
Li0.98Mg0.02Ti2O4,2.5
Nb1N1.25O0.25,2.5
V2.7Mn0.3Si1,2.5
V2.793Ni0.207Ga1,2.5
Nb3Rh0.02Au0.98,2.5
V3Ga0.8Si0.2,2.5
Zr1Ru1As1,2.5
Li1Ti2O4,2.5
Mo0.9Hf0.1C1,2.5
Fe1.03Te0.9Se0.1,2.5
Nd1Fe0.97Mn0.03As1F0.11O0.89,2.5
Y0.9Ce0.1Ni2B2C1,2.5
Fe0.03Te0.9Se0.1,2.5
Ce1Fe1As1F0.05O0.95,2.5
Ca1Fe1.958Rh0.042As2,2.5
La1Fe1As1F0.14O0.86,2.5
Fe1Te0.7Se0.3,2.5
Hf1Ru1P1,2.5
La1Fe0.925Ir0.075As1O1,2.5
Ca10Pt3.474Fe9.526As18,2.5
C0.017N0.632Ta1,2.5
C0.97Ta1,2.5
Ba0.5K0.5Fe1.8Cu0.2As2,2.5
Th1Co0.6Ni0.4C2,2.5
Li1.08Ti1.92O4,2.5
Nb0.4Ta0.6C1,2.5
Mo1B0.03C0.82,2.5
Cu1Mo3S4,2.5
Mo0.66Re0.34,2.5
O0.105Rh0.285Zr0.61,2.5
Zr0.61Rh0.285O0.105,2.5
Y1Ni1Pd1B2C1,2.5
Y1Ni0.8Pd1.2B2C1,2.5
Lu0.8Dy0.2Ni2B2C1,2.5
C0.98Nb1,2.5
Nb0.8Ga0.17Ni0.03,2.5
N0.75H2.25Na1K2C60,2.5
Sn1Mo6S8,2.5
Y1Ni1.82Pd0.18B2C1,2.5
V0.746Ga0.169Al0.085,2.5
V0.75Si0.2Al0.05,2.5
Ta0.05Mo0.95C1,2.5
Ba0.8Na0.2Fe2As2,2.5
Fe0.97Zn0.03Se0.3Te0.7,2.5
Sr1Ca13Cu24O41,2.5
Ba2Ti2Fe1.94Cr0.06As4O1,2.5
Lu0.772Dy0.228Ni2B2C1,2.5
Lu1Rh4B4,2.5
Li1.035Ti1.965O4,2.5
Sm1Fe0.85Co0.15As1O1,2.5
La3Ni2B2N3,2.5
Nd0.75Pr0.25Ba2Cu3O6.96,2.5
Na2Cs1C60,2.5
Hg1.4Tl0.6Ba2Y1Cu2O7.92,2.5
La1.937Sr0.063Cu1O4,2.5
Ba1Pb0.75Bi0.25O3,2.5
La1.85Sr0.11Ho0.04Cu1O4,2.5
V2.799Mo0.201Ga1,2.5
Nb3Al0.55Ge0.45,2.5
Mo0.3Si1,2.5
Lu1Rh4B4,2.49
Sn1Mo6S8,2.49
Li0.6Zr1N1Cl1,2.49
V0.747Ga0.131Al0.122,2.49
V0.77Si0.21Al0.02,2.49
V0.75Ge0.15Al0.1,2.49
Th1.4Lu0.3C3,2.49
Pb1Mo6S6O2,2.48
Sn1Mo6S8,2.48
Li1.07Ti1.93O4,2.48
Mo0.9W0.1C1,2.48
Ce1Fe1As1F0.05O0.95,2.48
Sr1Fe1.85Pt0.15As2,2.48
Ba0.2K0.8Fe2As2,2.48
Mo3Os1,2.48
Nb0.15Mo0.85C1,2.48
La1Fe1As0.15P0.85O1,2.48
Ru0.9Nb0.1Sr2Gd1Cu2O8,2.47
Fe1.02Te0.5Se0.3S0.2,2.47
C6Ca1,2.47
La1.85Sr0.15Cu0.988Fe0.012O4,2.47
Ba1Pb0.75Bi0.25O3,2.47
Y2C2Br0.5I1.5,2.47
Mo0.5Re0.5,2.47
Y1Ni1.8Cu0.2B2C1,2.47
Ho0.5Y0.5Ni2B2C1,2.47
La1Mo6Se8,2.46
Y2C2Br0.5I1.5,2.46
Nb0.743Ga0.210Fe0.046,2.46
Na2Cs1C60,2.46
Y2C2Br0.5I1.5,2.455
Th1.2Lu0.8C3,2.455
La1Mo6Se8,2.45
Nb0.9W0.1C1,2.45
C3Y2,2.45
Li0.18Zr1N1Cl1,2.45
C6Ca1,2.45
Ca1Fe2As2,2.45
Li0.28Zr1N1Cl1,2.45
Fe1.18Te0.6Se0.4,2.45
Ba1Fe1.924Co0.076As2,2.45
Ba1Fe1.906Co0.042Cu0.052As2,2.45
Gd1Fe0.7Ir0.3As1O1,2.45
La1.85Sr0.15Cu0.971Ni0.029O4,2.45
Sm1Fe0.925Co0.075As1O1,2.45
Ca9.5Yb0.5Pt3Fe10As18,2.45
Na1Fe0.978Cu0.022As1,2.45
C0.98Nb1,2.444
Sr0.4K0.6Bi1O3,2.44
La1.9Sr0.1Cu0.99Ni0.01O4,2.44
Y1Ba2Cu3.9Zn0.1O8,2.44
Mo1B0.05C0.82,2.44
C6Ca1,2.44
Au1Nb3,2.44
C1.45V0.1Y0.9,2.43
C1.45Y1,2.43
C3Y2,2.43
V2.883W0.117Ga1,2.43
V3Ga0.937In0.063,2.43
Y1Ni1.94Co0.06B2C1,2.43
Y1Ni1.8Cu0.2B2C1,2.42
Nb2.73Ti0.27Al1,2.42
Nb0.8Ga0.17Cr0.03,2.42
Mo0.62Re0.38,2.42
Pb1Mo6S8,2.42
V0.767Ga0.18Al0.053,2.42
Au1Nb3,2.42
Y1.8V0.2C2.9,2.42
Li1Ti2O4,2.42
Mo0.9Zr0.1C1,2.42
Mo0.84Hf0.16C1,2.42
C6Ca1,2.42
Lu1Rh4B4,2.42
Fe1Te0.925Se0.075,2.42
Pr0.8Sr0.2Fe0.8Co0.2As1O1,2.418
K0.26Zr1N1Cl1,2.41
La1Fe0.999Mn0.001As1F0.11O0.89,2.41
Na1Fe0.981Cu0.019As1,2.41
Nd1Fe1As1F0.3O0.7,2.41
C6Ca1,2.41
Zr1Ru1P1,2.41
Lu1Rh4B4,2.41
Y0.8Tb0.2Ni2B2C1,2.4
La1Fe1As0.2P0.8O1,2.4
Li2.6Ti1.7O4,2.4
Li1Ti2O4,2.4
C6Ca1,2.4
Rh0.25Zr0.75,2.4
Nb2.7Mo0.3Al1,2.4
V0.741Ga0.152Al0.107,2.4
V0.75Ge0.188Al0.062,2.4
Mo0.8Hf0.2C1,2.4
La1Si5,2.4
Ca1Fe1.956Rh0.044As2,2.4
Rh1Zr2,2.4
Y1Rh4B4,2.4
Tc0.9V0.1,2.4
Ba0.6K0.4Bi0.7Pb0.3O3,2.4
Ba0.9K0.1Bi0.4Pb0.6O3,2.4
Y1Ba2Cu2.6Co0.4O7.03,2.4
Y1Ba2Cu3O6.38,2.4
Sr0.4K0.6Bi1O3,2.4
Sm0.85Gd1Ce0.15Cu1O3.97,2.4
Nb1N1.34O0.27,2.4
C1.35Si0.1Y0.9,2.4
V2.7Cr0.3Si1,2.4
Ge0.5Nb3Sn0.5,2.4
N0.7Nb1,2.4
Si1V2.7Cr0.3,2.4
Cu1.6Mo6S8,2.4
La1Mo6Se8,2.4
Y1Ni2B2C1,2.4
V0.75Ge0.13Al0.12,2.4
Nb3Sn0.5Ge0.5,2.4
Y1.8Si0.2C2.7,2.4
Mo0.6W0.4C1,2.4
Mo0.4W0.6C1,2.4
Fe0.98Ni0.02Se0.82,2.4
Fe1Te0.69Se0.25S0.06,2.4
Ba1Fe1.935Ni0.065As2,2.4
Na1Fe0.975Cu0.025As1,2.4
Mo0.55Pt0.05Re0.425,2.4
Rh0.33Zr0.67,2.4
Lu1Rh4B4,2.4
Tc0.8V0.2,2.4
Ba1Pb0.7Bi0.3O3,2.4
Au1Nb3,2.4
Nd1.85Ce0.15Cu0.996Co0.004O4,2.4
Nd1.85Ce0.15Cu0.995Ni0.005O4,2.4
Gd0.6Pr0.4Ba2Cu3O6.95,2.4
Li2.6Ti1.9O4,2.4
La1.79Sr0.21Cu0.98Ru0.02O4,2.4
Au0.25Nb0.75,2.4
B5Mo1.69Zr0.31,2.4
C0.4Mo0.6,2.4
C1.35Ru0.1Y0.9,2.4
Rh0.33Zr0.66,2.4
V3Si0.76Al0.24,2.4
V3Ga0.994Cd0.006,2.396
Rh1Zr2,2.392
Rh1Zr2,2.39
C1Nb1,2.39
Nb0.748Ga0.237Mn0.016,2.39
Nb0.724Ga0.260Mn0.016,2.39
Y2I1.6Br0.4C2,2.39
Y0.9Gd0.1Ni2B2C1,2.39
V0.75Ge0.025Al0.225,2.39
Y1.8Ru0.2C2.7,2.39
Rh1Zr2,2.386
C1Nb1,2.38
C3La2,2.38
Y0.9Pr0.1Ni2B2C1,2.38
Rh1Zr2,2.38
Fe1Cr0.01Se1,2.38
Ca0.74La26Fe0.975Co0.025As2,2.38
Ba1Fe2S3,2.38
Rb1Eu1Fe3.72Ni0.28As4,2.38
Sr0.4K0.6Bi1O3,2.38
V3Ge0.7Al0.3,2.38
La0.9Sr0.1Fe1As0.8P0.4O1,2.376
La1.8Sr0.2Cu0.97Ni0.03O4,2.37
Y0.8Pr0.2Ba2Cu3O6.5,2.365
La1.8Sr0.2Cu0.973Zn0.027O4,2.36
Ba0.6K0.4Bi0.933Pr0.067O3,2.36
C3La2,2.36
C6Ca1,2.36
C1Nb1,2.36
Mo0.52Re0.48,2.36
Pb1Mo6S7,2.36
Rh0.14Zr0.86,2.36
Tm1Ni2B2C1,2.36
Zr2Rh1H0.08,2.36
Au1Nb3,2.36
Mg0.31Al0.69B2,2.36
Y2I1.5Br0.5C2,2.36
V0.75Si0.175Al0.075,2.35
Ta0.5Nb0.5C1,2.35
Mn0.2Fe0.8Se0.85,2.35
Ba1Fe1.776Co0.224As2,2.35
Ba0.5K0.5Fe1.8Ni0.2As2,2.35
Sm1Fe0.7Ru0.3As1F0.15O0.85,2.35
Na1Fe1As1,2.35
La1Fe1As1F0.2O0.8,2.35
Na1Fe0.976Cu0.024As1,2.35
La1Fe1As0.8P0.2F0.14O0.86,2.35
Au1Nb3,2.35
Tc0.75V0.25,2.35
Zr1Ru1As1,2.35
V3Ge0.8Al0.2,2.35
La1Fe0.9Co0.1As1O1,2.35
La1.91Sr0.09Cu1O4,2.35
Eu0.65La1.2Ce0.15Cu1O4,2.34
Bi1Pb1Sr0.12Pr0.12Cu1O6,2.34
La1.86Ba0.14Cu0.99Ni0.01O4,2.34
Ba1.7K0.3Pb0.95Bi0.05O4,2.34
Ba1.7K0.3Pb0.9Bi0.1O4,2.34
Gd1.4Ce0.6Sr2Cu2Ti1O10,2.332
Pr1.573Y0.278Ce0.15Cu1O4,2.33
La1.6Nd0.2Ba0.2Cu1O4,2.33
La1.52Nd0.4Ba0.08Cu1O4,2.33
Sr0.4K0.6Bi1O3,2.33
Pr1.573Y0.278Ce0.15Cu1O4,2.325
Nd1.85Ce0.15Cu0.97Zn0.03O4,2.32
La1.685Nd0.2Sr0.115Cu1O4,2.32
La1.5Ba1.4Ca0.1Cu3O6.912,2.32
Rb1Bi1O3,2.32
Rb0.9Bi1.1O3,2.32
Rb0.7Bi1.3O3,2.32
Rb0.6Bi1.4O3,2.32
Ba0.47K0.53Bi1O3,2.32
Ru1Sr2Eu1Cu2O8,2.32
La1.48Nd0.4Sr0.12Cu1O4,2.315
Ru0.7Sn0.3Sr2Gd1Cu2O8,2.31
Ca1.8Na0.2Cu1Br2O2,2.31
La1.8Sr0.2Cu0.99Zn0.01O4,2.31
Li1Ti2O4,2.31
C3La2,2.31
Cu1Mo4S5,2.31
Mo6.35Pb0.9S8Sn0.12,2.31
Nb0.75Zr0.25,2.31
Rh1Zr3,2.305
Rh0.12Zr0.88,2.3
Nb3Pt1,2.3
Nb3Rh0.05Au0.95,2.3
C1Ta1,2.3
C1.35La1,2.3
Er1Ni2B2C1,2.3
Tm1Ni2B2C1,2.3
Y0.8Tb0.2Ni2B2C1,2.3
La0.94Mo6Se8,2.3
La1Pt1.5Au0.6B2.4C1.2,2.3
Au0.24Nb0.76,2.3
Au0.25Nb0.75,2.3
Nb0.745Ga0.211Co0.044,2.3
N0.87H2.61Na1K2C60,2.3
Na2Cs1C60,2.3
Zr1Ru4P2,2.3
Y1Ni2B2C1,2.3
B1,2.3
Li1.3Zr1N1Cl1,2.3
Na1.38Zr1N1Cl1,2.3
Pb0.7Eu0.3Mo6.35S8,2.3
Nb0.2W0.8C1,2.3
Mo0.84Zr0.16C1,2.3
La1.5Nd0.4Sr0.1Cu1O4,2.3
Li0.9Mg0.1,2.3
La1Fe0.95Co0.05As1O1,2.3
Ba1Pb0.75Bi0.25O3,2.3
Ba1Fe1.92Co0.08As2,2.3
Fe1.049Se0.2Te0.8,2.3
Fe1.013Te0.68Se0.32,2.3
Fe1.04Te0.95Se0.05,2.3
Mn0.1Fe0.9Se0.85,2.3
Ba0.86K0.14Fe1.68Co0.32As2,2.3
Ba0.82K0.18Fe1.654Co0.346As2,2.3
Sr1Fe1.732Co0.268As2,2.3
Fe2As2Ba4Sc3O7.5,2.3
Ba1Fe2Se3,2.3
Ba1Fe1.9Se3,2.3
Ca10Pt3.97Fe9.03As18,2.3
Fe1Te0.6Se0.4,2.3
Ba1Fe1.81Zn0.08Co0.11As2,2.3
K0.8Fe1.993Cr0.007Se2,2.3
K0.8Fe1.988Co0.012Se2,2.3
Ca0.81Nd0.19Fe1As2,2.3
Li0.8Fe1.2Se0.23S0.77H1O1,2.3
Sm1Fe1As0.55P0.45H0.16O0.84,2.3
Fe1Se0.1Te0.9,2.3
Ca1Fe2As1.94P0.06,2.3
La0.8Y0.2Fe0.98Mn0.02As1F0.11O0.89,2.3
Bi1.6Pb0.3Sb0.1Sr2Ca2Cu3O10,2.3
Tl2Ba2Ca1Cu2O8,2.3
Tl2Ba2Ca3Cu4O12,2.3
Sr2Ca2Cu3O5.5,2.3
Bi2Sr2Ca2Cu3O10,2.3
Bi1.8Pb0.3Sr2Ca2Cu3O10,2.3
Tl2Ba2Ca1Cu1.98Fe0.02F0.2O7.9,2.3
Bi2Sr2Ca2Cu3O10.28,2.3
Bi1.65Pb0.35Sr2Ca2Cu3O10,2.3
Bi1.4Pb0.6Sr2Ca2Cu3O7,2.3
Tl2Ba2Ca1Cu2O7,2.3
Tl1Ba2Ca2Cu3O9,2.3
Hg0.7Bi0.3Sr2Ca2Cu3O8.15,2.3
Bi1.8Pb0.3Sr2Ca2Cu3O10,2.295
Bi1.7Pb0.3Sr2Ca2Cu3O10,2.29
Bi1.6Pb0.4Sr2Ca2Cu3O10,2.29
Ba2Ca1Cu2F1.6O4.4,2.29
Tl1Ba2Ca1Cu2O8,2.29
Bi0.6Nd0.2Tb0.2Pb1Sr2Ca2Cu3O10,2.29
Tl2Ba2Ca1Cu2O8,2.29
Tl2Ba2Ca1Cu2O7.958,2.29
Tl2Ba2Ca1Cu2O7.946,2.29
Bi1.8Pb0.4Sr1.85Ca2.05Cu3O10.26,2.29
Ga1Sr2Ca3Cu4O11,2.285
Ga1Sr2Ca3Cu4O11.1,2.28
Hg0.7Bi0.3Sr2Ca2Cu3O8.35,2.28
Hg0.5Bi0.5Sr2Ca2Cu3O8.35,2.28
Hg1Ba2Ca2Cu3O8.22,2.28
Bi1.8Pb0.3Sr2Ca2Cu3O10,2.28
V0.5Sr2.7Ca2.3Cu4.5O11.6,2.28
Tl2Ba2Ca1Cu2O8,2.28
Bi2Sr2Ca2Cu3O10,2.28
Bi1.7Pb0.3Sr2Ca2Cu3O10,2.28
Ba2Ca3Cu5O1,2.28
Hg0.75Mo0.05Sr2Ca2Cu3O1,2.27
Tl2Ba2Ca1Cu2O8,2.27
Tl2Ba2Ca1Cu1.98Fe0.02O8,2.27
Ba2Ca1Cu2F1.4O4.6,2.27
Bi1.6Pb0.4Sr2Ca2Cu3O10.11,2.27
Bi0.16Pb0.4Sr2Ca2Cu3O10.11,2.27
Tl0.5Pb0.5Sr2Ca0.8Y0.2Cu2O7,2.27
Tl2Ba2Ca2Cu3O10,2.27
Bi1Sr1Ca1Cu1O1,2.26
Sr0.041Ca0.042Cu0.062C0.061B0.054O0.740,2.26
Tl1Ba1Sr1Ca2Cu3O9,2.26
Tl1Ba2Ca1Cu2O8,2.26
Hg1Ba2Ca1Cu2O6.14,2.26
Hg1Ba2Ca2Cu3O8.2,2.26
Tl2Ba2Ca1Cu2O8,2.26
Ba2Ca3Cu4F1.2O8.8,2.26
Bi1.4Pb0.6Sr2Ca1.9Ga0.1Cu3O7,2.26
Bi1.6Pb0.4Sr2Ca2Cu3O9.91,2.26
Tl1.8Ba2Ca0.85Cu2.2O8,2.258
Hg0.7Bi0.3Sr2Ca2Cu3O8.65,2.254
Tl2Ba2Ca1Cu2O8,2.252
Hg1Ba2Ca2Cu3O8.2,2.25
Bi1.6Pb0.35V0.05Sr2Ca2Cu3O10.12,2.25
Bi0.16Pb0.35V0.05Sr2Ca2Cu3O10.12,2.25
Bi1Pb1Sr2Ca2Cu3O10,2.25
Hg0.5Pb0.5Ba2Ca2Cu3O8.45,2.25
Cu3.5Sr2Ca2Cr0.5O9.55,2.25
Tl1.6Ba2Ca3.3Cu4O11.89,2.25
Tl2Ba2Ca1Cu2O8,2.25
Tl2Ba2Ca0.9Ce0.1Cu1.98Fe0.02F0.2O7.9,2.25
Tl2Ba2Ca0.8Ce0.2Cu2O8,2.25
Ba2Ca3Cu4F1O9,2.25
Bi1.6Pb0.3Sr2Ca2Cu3V0.1O10.12,2.25
Bi0.16Pb0.3V0.1Sr2Ca2Cu3O10.12,2.25
Bi1.6Pb0.4Sr2Ca2Cu3O10.07,2.25
Tl1Ba2Ca0.65Y0.35Cu2O7,2.25
Bi1.6Pb0.4Sr2Cu3Ca2O0.13,2.25
Hg0.8Bi0.2Sr2Ca2Cu3O8.35,2.25
Tl0.5Pb0.5Sr1.84Nd0.16Ca1Cu2O7,2.25
Hg1Ba2Ca1Cu2O6.13,2.25
Ba2Ca3Cu4F1.2O8.8,2.25
Ba2Ca2Cu3F1.6O6.4,2.25
Tl1Sr2Ca0.8Cr0.2Cu2O7,2.25
Hg1Ba2Ca2Cu3O8.16,2.25
Tl2Ba2Ca1Cu1.98Fe0.02F0.3O7.85,2.25
Y3Ba5Cu8O18,2.25
Tl1Ba2Ca0.8Nd0.2Cu2O6.86,2.25
Ga1Sr2Ca3Cu4O10.9,2.24
Cu3S0.5Sr2Ca2O12,2.24
Hg1Ba2Ca1Cu2O6.3,2.24
Tl2Ba2Ca0.9Ce0.1Cu2O8,2.24
Tc0.95V0.05,2.24
Er1Ni2B2C1,2.24
Ca10Pt3.42Fe9.58As18,2.24
La1Bi1S2F0.5O0.5,2.24
Th1Co0.5Ni0.5C2,2.24
C1Nb1,2.237
C0.571N0.271Ta1,2.23
Tm1Ni2B2C1,2.23
Gd0.51Sm1.34Ce0.15Cu1O4,2.23
La1.8Sr0.2Cu0.97Ni0.03O4,2.23
Li2.6Ti2.7O4,2.23
Nb3Pt1,2.23
Mo0.95Hf0.05C0.7,2.23
Cu1.5Mo4.5S6,2.23
Nb0.42Tc0.58,2.23
V2.7Ti0.3Si1,2.222
Nb0.692Sn0.036Al0.156Ge0.116,2.22
Si1V2.7Ti0.3,2.22
Y1Ni1.7Cu0.3B2C1,2.22
Tm1Ni2B2C1,2.215
Tm1Ni2B2C1,2.21
Nb0.8Zr0.2,2.21
Nb3Pt1,2.21
Nb3Rh0.02Au0.98,2.21
Th1.6Lu0.4C3,2.21
Sn1.08Eu0.1Mo6.35S8,2.21
Mo0.8Zr0.2C1,2.21
Sc1Tc2,2.21
B2.6Nb1,2.21
Fe1Se0.082Te0.738,2.21
La1Fe0.9Ir0.1As1O1,2.207
Pr1Fe0.9Co0.1As0.8P0.2O1,2.2
Ca9.75Lu0.25Pt3Fe10As18,2.2
Ba1Fe1.82Ni0.18As2,2.2
La0.99Y0.01Fe0.995Mn0.005As1F0.11O0.89,2.2
Tm1Ni2B2C1,2.2
La1Fe1As0.2P0.8F0.05O0.95,2.2
Nb5Ir3O1,2.2
Bi1.5Pb0.5Sr1.4La0.6Cu1O6.118,2.2
La1.85Sr0.15Cu0.98Ru0.02O4,2.2
La1.85Sr0.15Cu0.97Ru0.03O4,2.2
C1Mo2,2.2
C1.35Nb0.1Y0.9,2.2
Cu1Mo3S4,2.2
Mo0.05Tc0.95,2.2
Nb0.25Sn0.25Ta0.5,2.2
Nb0.85Zr0.15,2.2
V2.928Re0.072Ga1,2.2
Nb3Rh0.1Au0.9,2.2
Nb1Ta2Sn1,2.2
Nb1Sn1Ta2,2.2
Nb0.66Zr0.33,2.2
Nb0.75Zr0.25,2.2
Rh1Zr2,2.2
Cu2Mo6S8,2.2
Er1Ni2B2C1,2.2
Y1Ni1.7Cu0.3B2C1,2.2
Zr2Rh1H0.1,2.2
Au1Nb3,2.2
La1Mo6Se8,2.2
Er0.8Lu0.2Ni2B2C1,2.2
V0.75Ge0.175Al0.075,2.2
Nb0.7Zr0.3,2.2
Rh0.1Zr0.9,2.2
Y1.8Nb0.2C2.7,2.2
Y5Os4Si15,2.2
Fe1Se0.8S0.2,2.2
La1Fe1As0.7P0.3O1,2.2
Ca1Fe1.7Co0.3As2,2.2
Li1Fe0.95Co0.05As1,2.2
Hf1Ru1P1,2.2
Na1Fe0.968Cu0.032As1,2.2
Ca1Fe1.96Rh0.04As2,2.2
La0.8Y0.2Fe0.97Mn0.03As1F0.11O0.89,2.2
Mo1S2,2.2
Nb0.5Zr0.5,2.2
Nb0.6Zr0.4,2.2
C0.198N0.747Ta1,2.2
La1.892Ba0.108Cu1O4,2.2
P1,2.2
C1.35Ti0.1Y0.9,2.2
N1Zr1,2.2
V3Si0.79Ga0.21,2.2
Cu1.8Mo6S8,2.2
Y2I1.75Cl0.25C2,2.2
Y1Ni1.7Pd0.3B2C1,2.2
Nb0.9Zr0.1,2.2
V3Ga0.9Sn0.1,2.2
Y1.8Ti0.2C2.7,2.2
Sn1.2Mo6.35S8,2.2
Sn0.96Eu0.2Mo6.35S8,2.2
Li1Ti2O4,2.2
Fe1Se0.656Te0.164,2.195
Ba1Pb0.35Hg0.4Bi0.25O3,2.19
La1Bi1S2F0.5O0.5,2.19
Fe1Se0.89S0.11,2.19
V2Hf0.84Nb0.16,2.19
Cu1Mo3S4,2.19
La1Pt1.5Au0.5B2C1,2.19
La1Pt1.5Au0.5B2C1,2.18
Fe1Se0.89S0.11,2.18
La1.45Nd0.4Sr0.15Cu1O4,2.18
Sm0.7Pr0.3Ba2Cu3O6.65,2.18
C1.35Ge0.1Y0.9,2.18
Mo0.6Re0.4,2.18
V3Si0.1Ga0.9,2.18
Mo0.6Re0.395,2.18
Mo0.5Re0.395,2.18
Y1Ni1.6Cu0.4B2C1,2.18
Y1Ni1.6Cu0.4B2C1,2.17
Er1Ni2B2C1,2.17
Au1Nb3,2.17
Nb0.8Ga0.16Ni0.04,2.17
Nb0.8Ga0.16Cr0.04,2.17
C0.99Nb1,2.17
Y0.65Dy0.35Ni2B2C1,2.17
Pb1Mo6S7.5Se0.5,2.17
Y0.85Gd0.15Ni2B2C1,2.17
V0.7Si0.2Al0.1,2.17
Mo0.35Pt0.075Re0.375,2.17
Nb0.75Zr0.25,2.166
Nb0.65Zr0.35,2.16
Y1.8Ge0.2C2.7,2.16
Sn0.84Eu0.3Mo6.35S8,2.16
Y1Rh4B4,2.16
Lu1Ru1B2,2.16
Ba1Fe1.772Co0.228As2,2.16
Fe1Se0.9S0.1,2.16
Fe1Se0.85,2.16
Sm0.1Fe0.9Se0.85,2.16
Ba0.1Fe0.9Se0.85,2.16
Na1Fe0.925Co0.075As1,2.16
La1Fe1As0.7P0.3O1,2.16
Y1Rh4B4,2.15
V0.760Si0.092Ga0.148,2.15
Lu1Ru1B2,2.15
Li1Fe0.98Ni0.02As1,2.15
Au0.242Nb0.758,2.15
Au0.24Nb0.76,2.15
Au1Nb3,2.15
Tc0.97Ti0.03,2.15
Nb3Pt1,2.15
Fe1Se0.86S0.14,2.15
Ba1Pb0.75Bi0.25O3,2.15
Nd1.573Y0.278Ce0.15Cu1O4,2.15
La1.675Nd0.2Sr0.125Cu1O4,2.15
Sm1.48Gd0.37Ce0.15Cu1O4,2.15
Ca1.825Na0.175Cu1Br2O2,2.15
Li1.05Ti1.95O4,2.15
C1.35Ca0.1Y0.9,2.15
C1Ta0.45W0.55,2.15
Mo1Ru1,2.14
Nb1Tc3,2.14
V3Si0.72Ga0.28,2.14
V3Si0.986Sb0.014,2.14
Nb3Sn0.35Sb0.65,2.14
Sn1Mo6S8,2.14
Cu2.6Mo6S8,2.14
La1Pt2B2C1,2.14
Y1Pt2B2C1,2.134
Y1Ni1.4Cu0.6B2C1,2.13
Er1Ni2B2C1,2.13
Lu1Ni1.93Co0.14B2C1,2.13
C1Nb1,2.13
Na2Cs1C60,2.13
Zr1Rh1Si1,2.13
La1Pt2.1B2.4C1.2,2.13
Cu1.8Mo6S8,2.13
Y2I1.4Br0.6C2,2.13
Y2I1.3Br0.7C2,2.13
Mo0.7Re0.3,2.13
Er1Ni2B2C1,2.124
Er1Ni2B2C1,2.121
V3Ga0.2Si0.8,2.12
Nb0.25Ti0.75N0.98,2.12
Er1Ni2B2C1,2.12
Cu1.8Mo6S8,2.12
Cu1Mo3S4,2.12
Ir0.4Nb0.55O0.05,2.12
N0.78Nb1,2.12
Ta0.2Mo0.8C1,2.12
Ba1Fe1.924Co0.076As2,2.12
Fe1Se0.82Cl0.18,2.12
Fe1Te0.8Se0.2,2.12
Ca10Pt3.97Fe9.03As18,2.12
Ba0.82K0.18Fe2As2,2.12
La1Fe1As1F0.15O0.85,2.118
Sm1Fe1As0.47P0.53H0.09O0.91,2.115
Er1Ni2B2C1,2.113
Ca1K1Fe3.804Ni0.196As4,2.113
Nb5Ir3O1,2.11
Y0.86Gd0.14Ni2B2C1,2.11
Nb0.25Zr0.75,2.11
V2Hf0.87Ta0.13,2.11
Nb5Ir2.2Pt0.8O1,2.11
Cu2Mo6S8,2.11
Fe1Se0.93S0.07,2.11
La1.85Sr0.15Cu0.979Zn0.021O4,2.11
Ca0.2Ba1.55La1.25Cu3O6.98,2.11
Bi1.95Sr1.65La0.4Cu1O6.414,2.11
La1.875Ba0.065Sr0.06Cu1O4,2.11
Li1.12Ti1.88O4,2.108
Li1.07Ti1.93O4,2.1
Rh0.03Zr0.97,2.1
Tc0.9W0.1,2.1
V2.91Mo0.09Si1,2.1
Nb0.500Zr0.450Ta0.050,2.1
Y1Ni1.4Cu0.6B2C1,2.1
Er1Ni2B2C1,2.1
Y1Ni1.24Pd0.76B2C1,2.1
Y1Ni1.34Pd0.66B2C1,2.1
V0.75Si0.125Al0.125,2.1
V0.73Si0.23Al0.04,2.1
Nb0.5Zr0.5,2.1
Y0.83Er0.17Rh4B4,2.1
Fe1Cr0.01Se1,2.1
C1Ta1,2.1
Y2I1.75Br0.25C2,2.1
Th1Co0.7Ni0.3C2,2.1
Fe1Se0.91S0.09,2.1
Fe1Se0.83S0.17,2.1
Ba1Pb0.78Bi0.22O3,2.1
Sm1.573Y0.278Ce0.15Cu1O4,2.1
Li1.1Ti1.9O4,2.1
Al1V3,2.1
Nb0.5Ti0.5,2.1
Nb0.5Ti0.1Zr0.4,2.1
Nb0.500Zr0.400Ta0.100,2.1
Cu1.3Mo6S8,2.1
La1Ru4As12,2.1
Tm1Ni1.99Co0.02B2C1,2.1
Nb0.741Ga0.197Fe0.062,2.1
Zr1Rh1Si1,2.1
Y1Ni1.54Pd0.46B2C1,2.1
La0.9Nd0.1Pt2.1B2.4C1.2,2.1
V0.72Si0.17Al0.11,2.1
V0.75Ge0.2Al0.05,2.1
Nb0.6Zr0.4,2.1
Th1.8Lu0.2C3,2.1
La1Fe0.98Co0.02As1F0.11O0.89,2.1
Fe1Se0.8,2.1
La1Fe1As0.75P0.25O1,2.1
Ga1P1,2.1
Zr1Ru0.95Fe0.05P1,2.1
Zr1Ru1P1,2.1
Pb7Bi3,2.1
Fe0.98Co0.02Se0.3Te0.7,2.1
Re0.25Mo0.75,2.1
Fe1Se0.92S0.08,2.1
Er1Ni1.98Fe0.02B2C1,2.1
Nb5Ir2.4Pt0.6O1,2.1
La1Bi1S2F0.4O0.6,2.1
K0.85La0.15Bi1O3,2.1
Ba1Pb0.8Bi0.2O3,2.1
La0.88Mo6Se8,2.1
K2Mo3As3,2.1
La1.94Ba0.06Cu1O4,2.09
K1Bi1O3,2.09
K0.95Bi1.05O3,2.09
K0.9Bi1.1O3,2.09
K0.8Bi1.2O3,2.09
La1.7Sr0.3Cu1O3.997,2.09
Pu1Co0.1Rh0.9Ga5,2.09
C1Ta1,2.09
C1Mo0.83Ti0.17,2.09
C1.35Sn0.1Y0.9,2.09
Ir0.125Rh0.125Zr0.75,2.09
C1Ta1,2.08
V3Ga0.999Zn0.001,2.08
C1Mo0.83Ti0.17,2.08
Nb0.474Ti0.092Zr0.434,2.08
Nb0.495Zr0.505,2.08
Sn0.5Eu0.5Mo6S8,2.08
Tm1Ni2B2C1,2.078
Y1Ni1.94Fe0.06B2C1,2.075
La1Pt1.5Au0.6B2C1,2.07
Ho0.75Y0.25Ni2B2C1,2.07
Nb3.2Al0.24Ge0.4,2.07
Pb0.7Yb0.3Mo6Se8,2.07
Mo0.65Re0.35,2.07
La1Pt2.1B2.4C1.2,2.06
V0.783Ga0.138Al0.079,2.06
Nb0.67Hf0.33N1,2.06
Mo0.55Pt0.05Re0.4,2.06
Mg1B1.7C0.3,2.06
Y1.8Sn0.2C2.7,2.06
Sn0.6Eu0.5Mo6.35S8,2.06
La1Fe1As1O1,2.06
Lu1Ru1B2,2.05
Eu0.7Sr0.3Fe1.715Co0.285As2,2.05
La2.95Ce0.05Ni2B2N2.7,2.05
Sr1Pt2Ge2,2.05
Na1Fe0.994Cu0.006As1,2.05
C1Ta1,2.05
Fe1.02Te0.5Se0.2S0.3,2.05
Na1Fe0.996Cu0.004As1,2.05
Gd0.75Nd1.1Ce0.15Cu1O4,2.05
Y0.45Pr0.55Ba2Cu3O6.98,2.046
Y1Ba2Cu3O6.41,2.04
Y1Ba2Cu3O6.38,2.04
Zr0.5Hf0.5V2,2.04
La1.71Sr0.25Ho0.04Cu1O4,2.04
Au0.1C1.3Y0.9,2.04
Be12Mg1Re1,2.04
C1Ta0.5W0.5,2.04
Hf0.5V2Zr0.5,2.04
Mo0.3Nb0.1Re0.6,2.04
N0.9Nb0.114Ti0.886,2.04
Nb0.7Ti0.3,2.04
V3Si0.6Al0.4,2.04
V2.865Fe0.135Ga1,2.04
Nb0.565Zr0.288Hf0.147,2.04
Nb0.521Zr0.425Hf0.054,2.04
Y1Ni1Cu1B2C1,2.03
Y2Cu2I2,2.03
Y1Ni1.46Pd0.54B2C1,2.03
Rh0.09Zr0.91,2.03
Y1.8Au0.2C2.6,2.02
Sn0.72Eu0.4Mo6.35S8,2.02
Ga0.197Mn0.049V0.754,2.02
Mo0.2W0.8C1,2.02
Ba1Fe1.772Co0.228As2,2.02
Y0.99Gd0.01Rh4B4,2.02
La1Fe0.998Mn0.003As1F0.11O0.89,2.014
Zr1Ru0.99Rh0.01P1,2.011
Zr1Ru1P1,2.01
Fe1Se0.91S0.09,2.01
La0.8Y0.2Fe0.975Mn0.025As1F0.11O0.89,2.01
La1Fe1As0.2P0.8F0.14O0.86,2.01
Nb0.68Zr0.32,2.01
Y2I1.25Br0.75C2,2.009
La1Fe0.99Zn0.01As1O0.85,2
Nb0.75Ti0.25,2
Y0.75Tb0.25Ni2B2C1,2
Fe1Se0.574Te0.246,2
Tl2Ba2Cu1O5.989,2
La1.89Sr0.11Cu1O4,2
Eu1.55La0.3Ce0.15Cu1O4,2
Sr0.4Ca13.6Cu24O41.84,2
Bi1.95Sr1.65La0.4Cu1O6.2,2
Ba1.6Sr0.4Yb1Cu3O6.48,2
Cu2Ce0.7Sr2Y1.3O8.91,2
Cu7.5Sr2Ca6Cr0.5O17.1,2
Nd0.65Pr0.35Ba1Ca1Cu3O7,2
Sm1.665Y0.185Ce0.15Cu1O4,2
La0.9Pr0.85Sr0.25Cu1O4,2
Y1Ba2Cu2.91Zn0.09O6.68,2
Y1Ba2Cu2.91Zn0.09O6.65,2
La1.48Nd0.4Sr0.12Cu1O4,2
Dy1Ba2Cu2.7Fe0.3O6.96,2
La1.78Sr0.22Cu0.985Zn0.015O4,2
Y0.5Pr0.5Ba2Cu3O6.965,2
La1.7Sr0.3Cu1O4,2
Bi2Sr2Cu1O6.09,2
Bi2Sr2Cu1O6.16,2
Y0.8Pr0.2Ba2Cu3.925Fe0.075O8,2
Pr1.87Ce0.13Cu1O4,2
Gd1Ba1.65Pr0.35Cu3O6.97,2
La1.64Eu0.2Sr0.16Cu1O4,2
Ca1.85Na0.15Cu1Br2O2,2
Pu1Co0.8Fe0.2Ga5,2
Y2C2I2,2
La1.85Ce0.15Cu1O4,2
Mo3Al2C1,2
Nb3Au0.7Pt0.3,2
C6Ca1,2
Ba8Ge46,2
La3Se4,2
Pr2Ba4Cu7O14.5,2
Al2C1Mo3,2
Al0.175Nb0.775Zr0.05,2
C1Nb0.4Ta0.6,2
C0.5W0.5,2
Mo6.35Pb0.7S8Sn0.36,2
N1Nb1,2
Nb0.508Zr0.466Hf0.026,2
As1Ga1,2
Er1Ni2B2C1,2
C1.35Y1,2
Lu1Pd4B1C0.2,2
Y1Cu2B2C1,2
Tm1Ni2B2C1,2
Cu1.8Mo6S8,2
Mo0.75Re0.25,2
Mo0.57Re0.43,2
Li1.4Zr1N1Cl1,2
Ho0.45Lu0.55Ni2B2C1,2
C0.03Rh0.43Ta0.54,2
Ga0.21V0.79,2
Nb0.8Ta0.2C1,2
C1Ta1,2
Ta0.6W0.4C1,2
La1Pt2B2C1,2
Ce1Fe0.9Co0.1As1O1,2
Ba1Pb0.65Hg0.1Bi0.25O3,2
Li0.9Mo6O17,2
Fe0.95Co0.05Se1,2
Fe0.95Ni0.05Se1,2
C6Ca1H1,2
Fe1Se0.1Te0.9,2
Nd1Fe0.8Rh0.2As1O1,2
Fe1Te0.9S0.1,2
Fe1Se0.85,2
Y0.71Er0.29Rh4B4,2
Sm1Fe0.85Co0.15As1O1,2
Ba0.825K0.175Fe2As2,2
Ba0.88K0.12Fe2As2,2
Ca0.8Pr0.2Fe1As2,2
Ce1Fe0.74Co0.26As1H1,2
Eu1Fe2As1.4P0.6,2
Ba0.823K0.177Fe2As2,2
La0.5Bi1S2F0.5O0.5,2
Ba0.18K0.82Fe2As2,2
Nb2Ge1C1,2
Cu0.3Zr1Te2,2
Ga41Mo1,1.996
Fe1Se0.89S0.11,1.99
La0.994Tb0.006Al2,1.99
Au0.3Te0.7,1.99
La2Ir3Si5,1.99
Bi3.9Ag0.1S3O4,1.98
Tl1Ni2Se0.4S1.6,1.98
Pd0.316Zr0.684,1.98
Nb0.222U0.778,1.98
Ni3Th7,1.98
Ir0.69Y0.31,1.98
O3Rb0.27W1,1.98
Ni0.3Th0.7,1.98
Pt0.035W0.965,1.98
Nb0.8Pd0.2,1.98
Rb0.33W1O3,1.98
La3Pd4Si4,1.97
Tl1Ni2Se0.6S1.4,1.97
Mo1Rh1,1.97
Mo0.3U0.7,1.97
Ni3Th7,1.97
La1Ni1Ga2,1.97
Tm5Rh4.8Co1.2Sn18,1.97
U0.98Th0.02Pd2Al3,1.97
Ce0.875Yb0.125Co1In5,1.968
Ce0.95Nd0.05Co1In5,1.96
Ir0.02Re0.98,1.96
Nb3Rh0.95Co0.05,1.96
Al0.1V0.9,1.96
Ti2.01Nb0.99Sb1,1.96
Au0.28Te0.72,1.96
I4Sn1,1.95
Tl1Ni2Se1S1,1.95
Ag0.05Rh0.04Ti0.91,1.95
Nb0.83Sb0.17,1.95
Os1Ta1,1.95
Tm1.2Mo6S8,1.95
Lu1.2Mo6S8,1.95
Ta0.85W0.15,1.95
Hf0.8Rh0.2,1.95
Ti0.5Nb0.25Sb0.25,1.95
Ti0.85V0.15,1.95
Ga9Rh2,1.95
Nb3Te4,1.95
La3Co4Sn13,1.95
La1Pt1.8Ge2.2,1.95
La3Co2Sn13,1.95
Sn0.67Ag0.33Te1,1.95
Sn0.6Ag0.4Te1,1.95
Ce1Co1In5,1.95
Cu0.1Ir1Te1.5Se0.5,1.95
Hf1Rh0.9Pd0.1Si1,1.945
Na0.926Sn2P2,1.94
La1Pt0.4Ni0.6Si1,1.94
K1Hg1C8,1.94
Y1In0.75Pb2.25,1.94
B1Ta0.5W1.5,1.94
La3Pr0.75In1,1.94
U0.99Pd2Al3,1.937
Ni3Th7,1.934
Re0.987Ru0.013,1.93
Re0.947Os0.053,1.93
K1Hg1C8,1.93
Os0.058Re0.942,1.93
Os0.06Re0.94,1.93
Sn0.672Ge0.168In0.16Te1,1.93
Ce1Ru1.93Co0.07,1.93
U1Pd2Al3,1.93
Pd0.12Ti1Se2,1.92
Ce1Co1In4.972Sn0.028,1.92
Ni0.275Zr0.707Mn0.019,1.92
Au1Tl1,1.92
La0.98Pr0.02Ru2,1.92
Tm1Pd2Sn1,1.92
La7Ru3,1.92
Cu1Rh1.78Sn0.22Se4,1.92
Os0.046Re0.954,1.92
Os0.065Re0.935,1.92
Ru2Zr1,1.92
La0.948Ce0.052Sn3,1.92
Ir0.88Pt0.12Te2,1.92
Ce1Co1In4.945Cd0.055,1.92
Ce0.8Yb0.2Co1In5,1.91