formula,Tc
Zr2Co0.9Cu0.1,33
Re0.6Mo0.4,33
La1.48Nd0.4Sr0.12Cu1O4,33
Lu4.75Sc0.25Ir4Si10,33
B12Zr1,33
La1,33
Zr1.75Y0.25P1.25Se0.75,33
Ge0.18Nb0.82,33
Nb0.35Hf0.65N1,33
Rh0.075Zr0.925,33
Fe1.12Se0.11Te0.83,33
La2.96Gd0.04In1,33
La1Ru2.76Co0.24Si2,32.9
Ga1,32.9
Li0.34Rb1Sr2Nb3O10,32.9
Nb0.740Ga0.197Mn0.063,32.9
Pb1Te1S1,32.9
Ti0.1V0.9,32.9
Lu4.5Sc0.5Ir4Si10,32.9
Ho0.6Dy0.4Ni2B2C1,32.85
La1Sn3,32.85
Li0.1Rb1Sr2Nb3O10,32.8
Li0.34Rb1Sr2Nb3O10,32.8
La1Fe0.985Zn0.015As1O0.85,32.8
Ta0.85Zr0.15B1,32.8
Y0.9Th0.1Ni1C2,32.8
La1.85Sr0.15Cu0.979Co0.021O4,32.8
La1.875Ba0.1Sr0.025Cu1O4,32.7
C60Yb2.75,32.7
Y1Ba2Cu2.91Zn0.09O6.6,32.7
La1.75Sr0.25Cu1O4,32.6
Nd2Cu1F0.1O4,32.6
K0.95Bi1.05O3,32.6
Pr1.8Ce0.2Cu1O4,32.6
B12Zr1,32.6
C60Yb3.5,32.6
Ca1Al1Si1,32.6
Pr1Pt2B2C1,32.6
Hg1Pb2.3,32.5
Na0.33V2O5,32.5
Lu5Ir4Si9.5Ge0.5,32.5
La9Br5B3C6,32.5
Ba6.63Si46,32.5
B5Nb1.8Ru0.2,32.5
B12Zr1,32.5
Ba1Rh2,32.5
Be6Ga1,32.5
Co0.85Ni0.15Zr2,32.5
In0.488Na0.025Pb0.488,32.5
Re0.6W0.4,32.5
Rh0.53Se0.47,32.5
Rh0.36Se0.64,32.5
C1Nb1,32.5
Rh1Se1.75,32.5
Rh0.53Se0.47,32.4
Rh0.36Se0.64,32.4
C0.7Nb0.3,32.4
Ce1Ru2,32.4
Ge0.29Nb0.71,32.4
Ge1Nb3,32.4
N1Nb1,32.4
Re0.6W0.4,32.4
Ta0.081Ti0.919,32.4
Pr1Pt2B2C1,32.3
Pr1Pt1.5Au0.6B2C1,32.3
Ho0.6Dy0.4Ni2B2C1,32.3
Dy1Ni2B2C1,32.3
Dy1Ni2B2C1,32.25
Lu1Ni1.87Co0.26B2C1,32.2
Dy1Ni2B2C1,32.2
Zr2Rh1H0.7,32.2
Nb1S2,32.2
Mg1C1Ni2.91Cu0.09,32.2
C60Yb2.75,32.2
Mg1Co0.06Ni2.94,32.2
Mg1Co0.09Ni2.91,32.2
Pr1Pt2.1B2.4C1.2,32.2
Yb1Mo6Se8,32.2
Y2I0.5Br1.5C2,32.2
Ho0.6Dy0.4Ni2B2C1,32.1
Zr2Co0.85Ni0.15,32.1
Ca1Al1Si1,32.1
Be1,32.1
P1,32
Ba8Si40Ge6,32
Ba6.63Si46,32
Nb0.85V0.15,32
La2.971Gd0.029In1,32
Mg0.73Sc0.27B2,32
Lu2Fe3Si5,32
Y1Os3B2,32
Th0.8Sc1.2C3,32
Th1Ni2B2C1,32
Sn0.24Eu0.8Mo6.35S8,32
Mo0.4Re0.6,32
Al1La3,32
Ge1V3,32
Bi0.6Tl0.4,32
La1,32
Pr1Pt2B2C1,32
Lu1Fe3Si5,32
La1Fe0.85Co0.15As1O1,32
B6Y1,32
Fe1.02Se1,32
Na1Fe1As1,32
Fe1Se0.13Te0.87,32
Li1Fe1P1,32
Fe1.035Te0.78Se0.22,32
Ba1Fe1.856Ni0.144As2,32
B1,32
Cs0.23W1O3,32
Fe2As2Sr4Mg1Ti1O6,32
Nb4Co1Si1,32
Ca10Pt3.28Fe9.72As18,32
Nb1S2,32
Cu0.14Bi2Te3,32
Au0.1Sb0.8Te0.1,32
Sm1Fe0.92Ni0.08As1O1,32
Ba8Si41Al5,32
Nb2Pd1S5,32
Mg1.4Al0.6Si1,32
Mg1Al1Si1,32
Zr2Co0.85Ni0.15,32
Zr1V1Ge1,32
Eu0.9La0.1Fe1As2,32
Te5Zr1,32
Mo3Sb7,32
Re24Ti5,32
Re6Ti1,32
Ta1Rh2B2,32
Ta0.75Zr0.25B1,32
Ba1Bi3,32
Nb0.91Ni0.09B2,32
In0.753Sn0.150Pb0.049Si0.048,32
Y1Ba2Cu3O6.55,32
Y1Ba2Cu3O6.59,32
Sm1Ba2Cu3O6.709,32
Y0.8Pr0.2Ba2Cu3O7.4,32
La0.8Pr0.2Ba2Cu3O7,32
Y1Ba2Cu3O6.64,32
Ca0.2Ba1.55La1.25Cu3O7.11,32
Y0.7Pr0.3Ba2Cu3O7,32
Y1Ba2Cu3O6.71,32
Y1Ba2Cu3O6.49,32
Y1Ba2Cu3O6.556,32
Y1Ba2Cu3O6.602,32
Y1Ba2Cu3O6.546,32
Y0.7Pr0.3Ba2Cu3O6.97,32
Sm1Ba2Cu3O6.82,32
Gd0.85Mo0.15Ba2Cu3O6.855,32
Lu0.6Pr0.4Ba2Cu3O7,32
Pb2Sr2Ho0.5Ca0.5Cu2.97Al0.03O8,32
Y1Ba2Cu3O6.67,32
Y1Ba2Cu3O6.7,32
Y0.85Pr0.15Ba2Cu3O6.8,32
La0.25Dy0.75Ba1Ca1Cu3O7,32
Y0.7Ca0.3Ba2Cu2.7Co0.3O6.78,32
Pb2Sr2Eu0.95Ca0.05Cu3O8.1,32
Y1Ba2Cu0.97Zn0.03O7.95,32
Y1Ba2Cu3.96Fe0.04O8,32
Hg1Ba2Cu1O4.34,32
Y1Ba2Cu3O6.6,32
Sm1Ba2Cu2.94Zn0.06O6.85,32
Y1Ba1.6La0.4Cu3O7.04,32
Y1Ba2Cu3O6.56,32
La3Ca0.5Cd0.5Ba3Cu7O16.375,32
Tl2Ba2Cu1O6,32
Y1Ba2Cu3O6.65,32
Y1Ba2Cu3O6.66,32
Y1Ba2Cu2.8Fe0.2O6.9,32
Y1Ba2Cu3O6.5,32
Y1Ba2Cu3O6.61,32
Y0.8Pr0.2Ba2Cu3O7,32
Y1Ba2Cu3O6.516,32
Y1Ba1Sr1Cu3O6.83,32
Y0.8Pr0.2Ba2Cu3O6.95,32
Fe0.5Sr1Ba1Y1Cu2.5O7,32
Bi2Sr2Ca0.8Pr0.2Cu2O8,32
I1Bi2Sr2Ca1Cu2O8,32
Y1Ba2Cu2.775Co0.225O6.99,31.9
Y1Ba2Cu2.6Ni0.4O7,31.9
Tl2Ba2Cu1O5.94,31.9
Y1Ba2Cu3O6.54,31.9
Y1Ba2Cu3O6.6,31.9
Y1Ba2Cu4Li0.125O8,31.8
Y1Ba2Cu4Li0.25O8,31.8
Y1Sr2Cu2.7Ti0.3O7,31.8
Bi2Sr2Ca1Cu2I1O8,31.8
Y0.6Pr0.4Ba2Cu4O8,31.8
Sr1.75Ba0.25Cu1F2O2,31.8
Y1Ba2Cu3.88Co0.12O8,31.8
Y1Ba2Cu3O6.6,31.8
Lu0.7Ca0.3Ba2Cu3O6.15,31.8
Eu1.4Pr0.6Ba4Cu7O14.632,31.8
La2.9Gd0.3Ca0.6Ba3.2Cu0.3O16.503,31.8
Y1Ba2Cu3O6.72,31.8
La2.5Y0.5Ca1Ba3Cu6.44Fe0.56O16.617,31.75
Ru1Sr2Gd0.6Dy0.4Cu2O8,31.75
Tl1Sr2Ca0.8Pr0.2Cu2O7,31.7
Y1Ba2Cu2.97Zn0.03O6.75,31.7
Y1Ba2Cu3O6.6,31.7
Dy1Ba2Cu2.8Fe0.2O6.93,31.7
La1.9Gd1.1Ca1Ba2.4Sr0.6Cu6.58In0.42O16.554,31.7
Eu0.8Pr0.2Ba2Cu3O6.97,31.7
Y1Ba1.9La0.1Cu3O6.8,31.6
Y0.9Ca0.1Ba1.5La0.5Cu3O7.19,31.6
Y1Ba2Cu3.96Co0.04O8,31.6
Y1Ba2Cu3O6.6,31.6
Y1Ba2Cu2.982Zn0.018O6.75,31.6
Y1Ba2Cu2.8Fe0.2O6.85,31.6
Gd0.8Pr0.2Ba2Cu3O7,31.6
Y1Ba2Cu3O6.829,31.6
Y1Ba2Cu3O6.516,31.6
La1.5Pr0.5Ca1Ba2Cu5O11.782,31.5
Y1Ba2Cu3.96Zn0.04O8,31.5
Y0.8Pr0.2Ba2Cu3O7.1,31.5
Nd1Ba1.7La0.3O6.77,31.5
Y0.9Ca0.1Ba2Cu2.9Co0.1O6.76,31.5
Y0.85Ca0.15Ba2Cu2.85Co0.15O6.78,31.5
Sm0.9Pr0.1Ba2Cu3O6.95,31.5
Y1La0.3Ba1.7Cu3O7,31.5
Y1Ba2Cu2.94Zn0.06O7,31.5
Y0.7Pr0.3Ba2Cu3O6.98,31.5
Y1Ba2Cu3O6.58,31.5
La1.25Ba1.65Ca0.1Cu3O7.15,31.5
Y1Ba2Cu3O6.57,31.5
Nd0.95Pr0.05Ba2Cu3O6.85,31.4
La1Ba1.5Sr0.5Cu3O6.948,31.4
La0.7Pr0.3Ba2Cu3O7,31.4
Ca0.1La1.15Ba1.75Cu3O7.148,31.4
Y1Ba2Cu2.844Fe0.156O7,31.4
Y1Ba2Cu2.9Zn0.1O6.94,31.4
Y1Ba2Cu2.88Fe0.12O7,31.4
La1Ba1Sr1Cu3O6.94,31.4
La1Ba1Cu2.94Co0.06O7,31.4
Cu2C0.5Ca3O6.6,31.35
Y0.7Pr0.3Ba2Cu3O6.96,31.35
Ca0.1La0.35Ba1.65Cu3O7.15,31.3
Y1Ba2Cu3.96Ni0.04O8,31.3
Ca0.4La1.25Ba1.35Cu3O7.055,31.3
Y1Ba2Cu3O6.65,31.3
Bi2Sr2Ca0.6Pr0.4Cu2O8.316,31.3
Y1Ba1.5La0.5Cu3O7.17,31.3
Y1Ba2Cu2.9Zn0.1O6.94,31.2
Y1Ba2Cu2.91Zn0.09O7,31.2
Y1Ba2Cu3O6.729,31.2
Y1Ba2Cu3.956Zn0.044O8,31.2
C0.54Sr2Ca0.6Y0.4Cu2.38O6.89,31.2
Bi2Sr2Ca1Cu2I0.4O8.242,31.2
Ba1.8Sr0.2Yb1Cu3O6.61,31.1
Y1Ba2Cu3O6.66,31.1
Y1Ba2Cu3O6.64,31.1
Sm1.2Ba1.8Cu3O7.01,31.1
Tl1Ba1Sr1Cu1O5,31.1
Y1Ba2Cu3O6.6,31.1
Bi1.8Ga0.2Sr1.8Ca1.2Cu2O8,31.1
Y0.9Ce0.1Ba2Cu4O8,31.05
Gd0.8Th0.2Fe1As1O1,31
Sm1Ba1.9Pr0.1Cu3O6.99,31
Y1Ba2Cu3O6.58,31
Bi2Sr2Ca1Cu2I0.61O8.21,31
Y1Ba2Cu3O6.65,31
Y1Ba2Cu3.96Zn0.04O8,31
Gd1Fe1As1H0.1O0.9,31
Y0.8Pr0.2Ba2Cu3O6.8,31
Y0.9Pr0.1Ba2Cu3O6.65,31
Nd1Ba2Cu3S1O5,31
Y1Ba1.66La0.34Cu3O7.073,31
Tl2Ba2Cu1O5.943,31
Y1Ba2Cu3O6.7,31
Y1Ba2Cu2.91Zn0.09O7,31
Y1Sr2Cu2.675Ti0.325O7.1,31
Y0.6Ca0.4Sr1.6Ba0.4Cu2Ga1O7,31
Sr2Tm1Cu3O7.28,31
Sr1.5Ba0.5Y1Cu2.8Ga0.2O7.14,31
Nd1.8Pr0.2Ba4Cu7O14.587,31
La0.75Dy0.25Ba1Ca1Cu3O7,31
Y1Ba2Cu2.91Zn0.09O6.95,31
Hg1Ba2Cu1O4.36,31
Y1Ba2Cu3O6.5,31
Y1Ba2Cu3O6.52,31
La1Ba1.5Ca0.5Cu3O7.16,31
Y1Ba2Cu2.982Zn0.018O6.78,31
La0.8Ca0.1Pr0.1Ba1.5Sr0.5Cu3O6.856,31
Fe1Sr2Y1Cu2O7.68,31
Ba2Ca3Cu4F2O8,31
Gd1Ba1.85Pr0.15Cu3O7.09,31
Er0.7Ca0.3Ba2Cu3O6.83,31
Y0.7Pr0.3Ba2Cu3O7,31
Y1Ba2Cu2.74Fe0.26O7,31
Y0.85Ca0.15Sr0.5Ba1.5Cu2.5B0.5O7,31
Y1Ba2Cu3O6.55,31
Bi2Sr2Ca1Cu2I0.86O8.242,31
Y1Ba2Cu3O6.54,31
Y0.8Ca0.2Ba2Cu2.8Co0.2O6.78,31
Y1Ba2Cu3O6.61,31
Y1Ba2Cu2.9Co0.1O6.89,31
Eu1Ba2Cu2.8Co0.2O6.98,31
Tl1Sr1.65Th0.35Ca1Cu2O7,31
Tl1Sr2Ca0.65Th0.35Cu2O7,31
Sm1Fe1As1H0.19O0.81,31
Y1Ba2Cu3.92Ni0.08O8,31
Y1Ba2Cu2.9Ni0.1O6.87,31
Y1Ba2Cu2.9Zn0.1O6.81,31
Er1Ba2Cu3O6.31,31
Er1Ba2Cu2.85Zn0.15O7,31
Y1Sr2Cu2.75Mo0.25O7.1,31
Pb0.5Ca1Sr2Y0.5Cu2O6.97,31
Bi2Sr2Ca0.55Y0.45Cu2I1O8,30.95
Y0.9Ce0.1Ba2Cu4O8,30.9
Y1Sr2Cu2.8Re0.2O7,30.9
Tl1Sr1.7Ca0.3Yb1Cu2O7,30.9
Tl1Sr1.5Ca0.5Yb1Cu2O7,30.9
Sr2Tm1Cu3O7.48,30.9
Ca1La1Ba1Cu2.85Zn0.045O7,30.9
Ba1.6Sr0.4Yb0.95Ca0.05Cu3O6.58,30.82
Tl0.5Bi0.5Sr4Cu2C1O10,30.8
La0.75Nd0.25Ba1Ca1Cu3O7,30.8
La1.82Ca1.18Cu2O6,30.8
La0.5Dy0.5Ba1Ca1Cu3O7,30.8
La3.1Y0.2Ca0.4Ba3.3Cu7O16.529,30.8
Y1Ba2Cu3O6.52,30.8
Y1Ba2Cu3O6.52,30.7
Y1Ba2Cu3O6.5,30.7
Y1Ba2Cu3F1.26O6,30.7
Y1Ba2Cu3F1.46O6,30.7
Yb0.65Pr0.35Ba1.7Sr0.3Cu3O6.95,30.7
La1.5Ba1.1Ca0.4Cu3O7.05,30.69
Y0.7Pr0.3Ba2Cu3O6.965,30.6
Y1Ba1.85Cu2.85Co0.15O6.94,30.6
Bi1.6Sr0.4Yb1Cu3O6.817,30.6
Y1Ba2Cu2.91Zn0.09O6.93,30.6
Y1Ba2Cu2.94Zn0.06O6.83,30.6
Y1Ba2Cu3O6.5,30.6
Y1Ba2Cu3O6.57,30.6
Ba2Ca3Cu4F2O8,30.6
Bi0.3Pb0.3La1.2Sr1.2Cu2O5.81,30.6
Sm1Fe1As1O0.85,30.6
Sm1Fe1As1O0.85,30.57
Ba2Ca3Cu4F2O8,30.5
Sm1Fe1As1O0.67,30.5
Sm1Fe1As1F0.6O0.6,30.5
Gd1Fe1As1H0.1O0.9,30.5
Sm1Fe1As1H0.25O0.75,30.5
Fe1Se1,30.5
Y0.9Zn0.1Ba2Cu3O7,30.5
Y1Ba2Cu3O6.54,30.5
Y0.74Ca0.16Sr1.6Ba0.5Cu2.78S0.22O7,30.5
Sm1Fe1As1O0.85,30.5
Y1Ba2Cu3O6.53,30.5
Y1Ba1.7La0.3Cu3O7,30.5
Bi1.8Pb0.2Sr2Ca1Cu1.98Fe0.02O8,30.5
La0.6Pr0.4Ba2Cu3O7,30.5
Y1Ba2Cu2.8Zn0.2O6.88,30.5
Sm1Ba2Cu3O6.85,30.5
Y1Ba2Cu3O6.68,30.5
Sm1Fe1As1F0.1O0.9,30.5
Y1Ba2Cu2.9Ni0.1O6.85,30.5
Y0.9Ca0.1Ba2Cu3O6.5,30.4
Y1Ba1.9La0.1Cu3O6.7,30.4
Nd0.9Ca0.1Ba0.6La0.4Cu3O6.7,30.4
Bi1.7Pb0.3Sr2Ca0.8Y0.2Cu1.94Zn0.06O8,30.4
Y1Ba2Cu3O6.52,30.4
Er1Ba2Cu3O6.53,30.4
Y1Ba2Cu3.84Co0.16O8,30.4
C0.53Sr1.99Ca0.56Y0.45Cu2.39O6.94,30.4
Sm1Fe1As1H0.12O0.77,30.4
La1Ba1.25Sr0.75Cu3O6.996,30.4
Y1Ba2Cu3O6.55,30.4
Y1Ba1.5La0.5Cu3O7.17,30.4
Y2Ba4Cu7O14.81,30.35
Y1Ba2Cu3O6.5,30.31
Y1Ba2Cu2.88Fe0.12O7,30.3
Y1Ba2Cu2.841Co0.159O6.8,30.3
Y1Ba2Cu2.75Ni0.25O7,30.3
Y1Ba2Cu3O6.54,30.3
La1.7Sr0.3Ca1Cu2O6,30.3
Lu1Ba1Sr1Cu3O6.94,30.3
Bi1.6Pb0.4Sr6Cu3C2O16,30.3
Sr1.9Ba0.1Cu1F2O2,30.3
Nd1.1Ba1.5Ca0.4Cu3O6.864,30.3
La1.8Sr0.2Ca1Cu2O5.96,30.2
Y1Ba2Cu3O6.53,30.2
Er0.52Ca0.48Ba1.4Sr0.6Cu2.76Co0.24O6.77,30.2
Lu0.7Ca0.3Ba2Cu3O6.78,30.2
Y0.6Pr0.4Ba2Cu4O8,30.2
Lu0.6Pr0.4Ba2Cu3O7,30.2
Eu0.7Sr0.3Ba1.6Pr0.1Cu3O6.91,30.15
La1Ba1.5Sr0.5Cu3O6.902,30.15
La1.6Pr0.4Ca0.8Ba2Cu4.8O11.106,30.1
Nd1Fe1As1O0.2,30.1
Nd1Fe1As1O0.6,30.1
Ca0.4Nd0.6Fe1As1F1,30.1
Sm1Fe1As1O0.85,30.1
Y0.8Ca0.2Sr1.6Ba0.4Cu2.7Ga0.3O7,30.1
Dy0.7Pr0.3Ba2Cu3O6.9,30.1
Eu0.7Pr0.3Ba2Cu3O7,30.1
Nd1Fe1As1O0.7,30.1
Y0.4Ca0.3Pr0.3Ba2Cu3O7.02,30.1
Hg0.2Cr0.8Sr2Cu1O4,30.1
Gd1Fe1As1O0.7,30
Sm1Fe1As1F0.3O0.7,30
Bi1.7Pb0.3Sr2Ca0.6Y0.4Cu1.94Zn0.06O8,30
Gd1Fe1As1O0.85,30
Gd0.93Ca0.07Ba1Sr1Cu3O6.88,30
Sr0.5Sm0.5Fe1As1F1,30
Ba2Cu1O4,30
Fe1Sr2Y1Cu2O7.51,30
Y0.25Cd0.75Ba2Cu3O7,30
Y1La1.6Ba3.4Cu6O14.38,30
Y1Ba2Cu2.9Fe0.1O6.8,30
Gd0.8Pr0.2Ba2Cu3O6.95,30
Bi2Sr2Ca1Cu2I0.69O8.242,30
Y1Ba2Cu2.8Co0.2O6.83,30
Y1Ba2Cu2.8Co0.2O7.04,30
Tl2Ba2Cu1O5.963,30
Y1Ba2Cu2.745Fe0.255O7.08,30
La1.8Sr0.2Ca1Cu2O6,30
Y1Ba2Cu2.88Zn0.12O6.92,30
Y1Sr2Cu2.85Re0.15O7,30
Y1Sr2Cu2.65Ti0.35O7.1,30
Y0.7Ca0.3Ba2Cu2.55Co0.45O6.84,30
Y1Ba2Cu3.96Ni0.04O8,30
Bi2Sr2Ca1Cu2I1O8.242,30
Y1Ba2Cu3O6.5,30
Hg0.7Cr0.3Sr2Cu1O4.6,30
Ba1.6Sr0.4Yb0.6Ca0.4Cu3O6.25,30
Nd1Ba2Cu2.95Ga0.05O6.59,30
Y0.7Pr0.3Ba2Cu3O7,30
Y0.6Pr0.4Ba1Sr1Cu3O6.89,30
Hg1Ba2Cu1O4.08,30
Y1Ba2Cu2.84Fe0.16O6.959,30
Hg1Ba2Cu0.97Zn0.03O4.043,30
Tl0.5Pb0.5Sr2Ca1Cu2.95Co0.05O7,30
Nd1Fe1As1O0.6,30
Sm1Fe1As1O0.85,30
Nd1Fe1As1F0.175O0.825,30
Sm0.65Th0.35Fe1As1O1,30
Sm1Fe1As1F0.1O0.9,30
Nd1Fe1As1F0.1O0.9,30
Y0.85Pr0.15Ba2Cu3O6.65,30
Nd1Ba2Cu3O6.75,30
Y1Ba2Cu3O6.52,30
Ca0.4Ba1.15La1.45Cu3O7.23,30
Tl1Sr2Ca0.8Y0.2Cu2O7,30
Y1Ba2Cu2.95Fe0.05O6.73,30
Nd1.25Ba1.75Cu3O6.99,30
Y0.8Ca0.2Ba2Cu3O6.4,30
Y1Ba2Cu3.9Ni0.1O8,30
Y1La0.3Ba1.7Cu4O8,30
Y1Ba2Cu3O6.67,30
Y1Ba2Cu3O6.45,30
Cd1Tl0.7Ba1Cu1O4.5,30
Gd0.8Mo0.2Ba2Cu3O6.807,30
Tl1Sr2Ca0.75Th0.25Cu2O7,30
Y0.5Pr0.5Ba2Cu4O8,30
Fe0.5Ba1Sr1Y1Cu2.5O7.424,30
Sm1Fe1As1F0.2O0.8,30
Ca0.85Ce0.15Ba1La1Cu3O7.07,30
Y1Ba2Cu2.5Ni0.5O7,30
Y1Ba2Cu3.96Zn0.04O8,30
Y0.9Pr0.1Ba2Cu3O6.75,30
Tb1Fe1As1O0.7,30
Sm1Fe1As1O0.7,30
La2.2Ba3.8Cu6O13.86,30
Y1Ba1.6La0.4Cu3O7.05,30
Tl1Ba1.2La0.8Cu1O5,30
Y1Ba1.6La0.4Cu3O7.06,30
Tl1Sr2Ca1Cu2O6.61,30
Sr1.5Ba0.5Y1Cu2.8Ti0.2O7.08,30
Lu0.8Ca0.2Ba2Cu3O6.81,30
Eu1.2Pr0.8Ba4Cu7O14.788,30
Tl0.5Bi0.5Sr4Cu2C1O10,30
La0.8Pr0.2Ba1Ca1Cu3O7,30
Eu1Ba2Cu2.9Ga0.1O6.74,30
Y0.6Pr0.4Ba1.2Sr0.8Cu3O6.89,30
Lu0.65Pr0.35Ba1.7Sr0.3Cu3O6.93,30
Y1Ba2Cu2.88Zn0.12O7,30
La1.3Ba1.5Ca0.2Cu3O6.94,30
Er1Ba2Cu2.88Zn0.12O6.92,30
C60,30
Nd1Fe1As1F0.18O0.82,30
Tb0.8Th0.2Fe1As1O1,30
Nd1Fe1As1F0.12O0.88,30
Fe1Sr2Er1Cu2O7.5,30
Nd1Fe1As1O0.85,30
Pb2Sr2Ho0.5Ca0.5Cu2.94Al0.06O8,30
Sm1Fe1As1H0.34O0.64,30
Y0.8Pr0.2Ba2Cu3O6.65,30
La0.5Pr0.5Ba2Cu3O7,30
Tl1Sr1.75Th0.25Ca1Cu2O7,30
H1Pd1,30
La1.77Sr0.23Ca1Cu2O6.03,30
Y1Ba2Cu2.9Zn0.1O7,30
Y1Ba1Sr1Cu3O6.8,30
Sm1Fe1As1F0.15O0.85,30
Y1Ba2Cu3O6.47,30
Y1Ba1.8La0.2Cu3O6.85,30
Sm0.9Th0.1Fe1As1O1,30
Sm1Fe1As1H0.3O0.6,30
Y1Ba2Cu3O6.48,30
Dy1Fe1As1O0.7,30
Y1Ba2Cu2.85Fe0.15O7,30
Y1Ba2Cu2.88Al0.12O7,30
Y1Ba2Cu2.72Ni0.28O7,30
Y1Sr2Cu2.75W0.25O7.1,30
Y1Sr2Cu2.7Fe0.3O7.1,29.9
La1.8Sr0.2Ca1Cu2O6.03,29.9
Y1Sr0.8Ba1.2Cu2.5B0.5O7,29.9
Y0.76Ca0.34Ba2Cu2.55Co0.45O6.95,29.9
Y0.76Ca0.24Ba2Cu2.55Co0.45O6.93,29.9
Y1Ba2Cu3O6.63,29.9
Nd1.2Ba1.6Ca0.2Cu3O6.929,29.8
Ba1.6Sr0.4Yb0.65Ca0.35Cu3O6.28,29.8
La2.5Y0.5Ca1Ba3Cu6.3Fe0.7O16.627,29.8
La1.4Ba1.5Ca0.1Cu3O6.982,29.8
Eu0.8Sr0.2Ba1.6Pr0.1Cu3O6.78,29.8
Ga1Sr2Tm0.6Ca0.4Cu2O7,29.8
Nd1Fe1As1O0.85,29.8
Dy1Fe1As1O0.85,29.8
Tb1Fe1As1F0.1O0.9,29.8
Nd1Fe1As1F0.1O0.9,29.75
Y1Ba2Cu2.7Fe0.3O7,29.75
Bi1.8Pb0.2Sr2Ca1Cu1.96Co0.04O8,29.7
Y1Ba2Cu2.76Co0.24O6.999,29.7
Ru1Sr2Gd1Cu2O8,29.7
Y1Ba2Cu3.92Co0.08O8,29.7
Bi2Sr2Ca2Cu2I0.86O8.21,29.7
Y1Ba1.9La0.1Cu3O6.6,29.6
Yb0.6Pr0.4Ba2Cu3O6.91,29.6
Sm1Fe1As1O0.85,29.6
Y1Ba2Cu3O6.56,29.6
Y1Ba2Cu3O6.62,29.6
Y1Ba2Cu3.92Fe0.08O8,29.6
Y1Ba2Cu2.88Zn0.12O7,29.6
Tm0.6Pr0.4Ba2Cu3O6.95,29.6
Y1Ba2Cu3O6.53,29.6
La1.25Ca0.2Ba1.55Cu3O7.082,29.6
Y1Ba2Cu3O6.5,29.6
Y1Ba2Cu3.96Zn0.06O8,29.55
La1.1Ba1.4Sr0.5Cu3O6.954,29.55
Sm1.27Ba1.73Cu3O7.05,29.5
Nd1Fe1As1F0.11O0.89,29.5
Sm1Fe1As1F0.12O0.88,29.5
Nd1Fe1As1F0.1O0.9,29.5
Y1Ba2Cu2.9Zn0.1O6.85,29.5
Nd0.8Ba0.2Fe1As1F0.4O0.6,29.5
Y1Ba2Cu3O6.5,29.5
Y1Ba2Cu3O6.66,29.5
Tl2Ba2Cu1O5.947,29.5
Tl2Ba2Cu1O6,29.5
Y2Ba4Cu7O14.38,29.5
La1.7Sr0.3Ca1Cu2O6,29.5
Y0.8Ca0.2Ba2Cu3O6.1,29.5
Pb0.5Ca1Sr2Y0.5Cu2O6.95,29.5
Y1Ba2Cu3O7,29.5
Y0.9Ca0.1Ba2Cu2.9Zn0.1O6.81,29.5
Y0.6Ca0.4Sr1.7Ba0.3Cu2Ga1O7,29.5
La1.3Ba1.4Sr0.3Cu3O6.91,29.5
Tl0.8V0.2Sr4Cu2C1O10,29.5
Y1Ba2Cu3.8Co0.2O8,29.4
Y1Ba2Cu3.88Ni0.12O8,29.4
Nd1.2Ba1.8Cu3O6.954,29.4
Gd1Ba1.5Sr0.5Cu3O6.73,29.4
Hg1Ba2Cu1O6.932,29.4
Sr1.5Ba0.5Y1Cu2.8Ga0.2O7.1,29.4
Tm1.2Pr0.8Ba4Cu7O14.652,29.4
Ba1.6Sr0.4Yb0.65Ca0.35Cu3O6.04,29.4
Tl0.7Bi0.3Sr4Cu2C1O10,29.4
Y0.5Pr0.5Ba2Cu4O8,29.4
Cu3P0.5Sr2Ca1.7Y0.3O9.4,29.4
Nd0.8Pr0.2Ba2Cu3O6.81,29.4
Dy1Ba2Cu2.8Ga0.2O6.78,29.4
Hg1Ba2Cu1O4.09,29.4
Y1Ba2Cu3O6.54,29.4
Dy1Ba2Cu3O7,29.35
Y1Ba2Cu2.97Zn0.03O6.7,29.3
Hg1.4Tl0.6Ba2Y0.8Ca0.2Cu2O7.83,29.3
La1.5Ba1Ca0.5Cu3O6.981,29.3
Er1Ba2Cu2.82Zn0.18O6.91,29.3
Er1Ba2Cu2.85Zn0.12Fe0.03O6.94,29.3
Tm1Ba2Cu3O6.49,29.3
Eu0.6Sr0.4Ba1.6Pr0.1Cu3O7.06,29.3
Hg0.75Mo0.25Sr2Cu1O4,29.3
La0.85Ca0.05Pr0.1Ba1.5Sr0.5Cu3O6.865,29.2
La1.5Nd0.5Ca1Ba2Cu4.5Mo0.5O11.119,29.2
Fe1Sr2Y1Cu2O7.68,29.2
Tl0.5Pb0.5Sr2Ca1Cu2.95Ni0.05O7,29.2
Sr0.8Ba1.2Cu1O3.35,29.2
C60,29.2
Yb1Fe4Al8,29.2
Bi0.2Pb0.3La1.3Sr1.2Cu2O5.78,29.2
Nd1Fe1As1F0.18O0.82,29.2
Tb1Fe1As1F0.1O0.9,29.2
Sm1Fe1As1F0.2O0.8,29.1
Pr1Fe1As1F0.225O0.775,29.1
Ca0.4Pr0.6Fe1As1F1,29.1
Ca5P2O10,29.1
Sm1Fe1As1H0.22O0.78,29.1
Tl0.7Er0.3Sr2Ca0.8Cr0.2Cu2O7,29.1
Tl0.7La0.3Sr2Ca0.8Cr0.2Cu2O7,29.1
Nb1S2,29.1
Fe1Se0.8S0.2,29.1
La1.865Ba0.135Cu1O4,29.1
Hf0.16Ta0.84,29.1
La1Sn3,29.1
Er0.11Ho0.89Rh4B4,29.1
Ba1Bi3,29.05
B12Zr1,29
Nb0.717Ga0.221Mn0.062,29
Zr0.993Lu0.007B12,29
Mg1C1Ni2.985Fe0.015,29
Ag0.7Mo4Se5,29
Ag0.7Mo3Se4,29
Er0.11Ho0.89Rh4B4,29
La1Fe1As0.1P0.9O1,29
Sc4Dy1Ir4Si10,29
In0.75Sn0.25,29
Er0.16Ho0.84Rh4B4,29
Li1,29
Rh0.06Zr0.94,29
Rh0.07Zr0.93,29
Ca1Al1Si1,29
Er0.005La0.995,29
La0.987Gd0.013Sn3,29
La1.87Ba0.13Cu1O4,29
Fe1Se0.7S0.3,29
Zr2Co0.9Ni0.1,29
Hf1Re6,29
Y0.74Gd0.26Ni2B2C1,29
Na0.1Pb0.9,29
Pb1Te1Yb1S1,29
Nb0.5Ta0.5,29
Ba0.7Rb0.3Ti2Sb2O1,29
La1Ru2.88Cu0.12Si2,29
Ho0.6Dy0.4Ni2B2C1,29
Zr2Co0.85Ni0.15,29
Ho0.65Dy0.35Ni2B2C1,29
Ho0.5Dy0.5Ni2B2C1,29
Ta2Pd0.97S5,29
Hf0.6Lu0.4P1.55S0.45,29
Zr1P1.25Se0.75,29
Gd1Nd0.85Ce0.15Cu1O4,29
Hg1Sm1Pb2,29
La1,29
Al3Os1,29
B5Nb1.8Zr0.2,29
Ga1Sb1,29
V0.26Zr0.74,29
Tm1Ni1.94Co0.12B2C1,29
Tb0.225Er0.775Ni2B2C1,29
Ge1Nb3,29
Cu1Mo6Se8,29
Cs0.005W1O3,29
Lu4.9Sc0.1Ir4Si10,29
Er0.775Tb0.225Ni2B2C1,29
Mo0.45Re0.55,29
Re2Zr1,29
Rh0.065Zr0.935,29
Cu0.7Mo3Se4,29
La1Os2,29
Dy1Ga6,29
Ca3Co4Ge13,29
Nb5Si2.8B0.2,29
Pr1Fe0.85Co0.15As1O1,29
B6Y1,29
Ba7.9Eu0.1Al5Si41,29
Bi3Sr1,28.92
Zr0.675Lu0.325P1S1,28.9
Ce0.97La0.03Ru2,28.9
Mo0.33Re0.67,28.9
Zr1.85La0.15P1.25Se0.75,28.9
Mo6Se6Te2,28.8
Zr2Co0.85Cu0.15,28.8
La0.15Ce0.85Ru2,28.8
Bi1In2,28.8
Th0.9La0.2Ru2,28.8
Hf0.5Lu0.5P1.45S0.55,28.8
B1Mo2,28.8
Hf0.14Re0.86,28.7
Ho0.7Dy0.3Ni2B2C1,28.7
Ho0.4Dy0.6Ni2B2C1,28.7
V0.823Ge0.154Sb0.023,28.7
Ba0.85K0.15Ti2Sb2O1,28.7
Hg1Pb2.1,28.7
B1Mo2,28.7
Cu1La1,28.7
Ga1N1,28.7
Ho0.4Dy0.6Ni2B2C1,28.6
Mg0.4Al0.6B2,28.6
Mo0.15Nb0.85,28.6
B12Zr1,28.6
Lu2Fe3Si5,28.6
Ba8Si44Al2,28.6
Nb1S2,28.6
Tl1Mo3Te3,28.6
Ga1La3,28.6
Ce1Fe1As0.47P0.53F0.05O0.95,28.6
Mo6Se7.7S0.3,28.6
Ge1V3H0.033,28.6
Zr2Co0.8Ni0.2,28.6
Ce0.8Pr0.2Ru2,28.5
Ir1Mo3Nb1Pt1,28.5
B12Zr1,28.5
Sn1Ta3,28.5
Zr0.993Lu0.007B12,28.5
Zr0.75Lu0.25P1S1,28.5
Nd0.65La1.2Ce0.15Cu1O4,28.5
La1.83Sr0.17Cu0.96Ni0.04O4,28.5
Hg1Pb2,28.5
Lu5Ir4Si9.8Ge0.2,28.5
B2.1Nb1,28.5
Al2Ca1Si1,28.5
Ba1Bi3,28.5
Be5Ga1,28.5
Co0.002Mo0.815Re0.185,28.5
Mo3Se4,28.5
Pb0.6Tl0.4,28.5
Rh17S15,28.5
P1,28.5
Ru0.465V0.535,28.5
Al2Ca1Si1,28.4
Hf0.14Re0.86,28.4
Rh0.005Zr1,28.4
Sb1Ti3,28.4
Ho1Ni2B2C1,28.4
Ho0.7Dy0.3Ni2B2C1,28.4
Y1Pt1.5Au0.6B2.4C1.2,28.4
Mo8P5,28.4
Be1,28.4
La1Mo6S8,28.4
Lu5Ir3.12Rh0.88Si10,28.4
Y2I0.4Br1.6C2,28.4
Y0.8La0.2B6,28.4
Ga1Ta4Se8,28.31
Mo0.33Re0.67,28.3
P1,28.3
Al2Ca1Si1,28.3
Ba1Bi3,28.3
La1Mo6S8,28.3
Ga1La3,28.3
Al1La3,28.3
Ge1H0.005V3,28.3
Mo1.94Hf0.06B1C1,28.3
La1Fe1P1F0.06O0.94,28.2
Mg9.3Ir19B16.7,28.2
Bi1Cu0.9S1O1,28.2
W5Si1B2,28.2
Mo5Si1B2,28.2
Ba1Fe1.92Co0.08As2,28.2
Sm1Fe0.825Co0.175As1O1,28.1
W5Si1B2,28.1
La1Fe1P1O1,28.1
Y3Os8B6,28.1
K2Cr3As3,28.1
Re24Ti5,28.1
Ta1Rh2B2,28.1
Mo1C1,28.1
S1Sn1,28
Y7Ru4In1Ge12,28
Ca1Ir2,28
Ag1Sn1Se1.8S0.2,28
Zr2Co0.95Ga0.05,28
Sr1Pt2.1Pd0.9P1,28
Zr0.5Lu0.5P1S1,28
Lu4.9Sc0.1Ir4Si10,28
Lu5Ir3.1Rh0.9Si10,28
Dy0.6Tm0.4Ni2B2C1,28
Pr0.8Eu0.2Pt4Ge12,28
Bi1In2,28
Nb0.8V0.2,28
Zr1P1.5Se0.5,28
Rh0.06Zr0.94,28
Tc0.3W0.7,28
Ti0.1V0.9,28
Ca3Co4Sn13,28
Pr0.95Ce0.05Pt4Ge12,28
Ba8Si43Al3,28
Ca1.5Sr1.5Ir4Sn13,28
K0.9La0.1Bi1O3,28
Ti1Re1O1,28
Mo0.96Zr0.04B2,28
La0.95Ce0.05Pt4Ge12,28
La2.939Ce0.061In1,28
Lu5Ir3.44Rh0.56Si10,28
Nb0.405Ta0.595,28
Ir2Th1,28
Zr2Co0.9Ga0.1,28
Cu0.318Sn0.682,28
Re1Ti1O5,28
Er0.11Ho0.89Rh4B4,28
Hf0.61Ta0.39,28
Ba0.6Rb0.4Ti2Sb2O1,28
Eu1.804Gd0.046Ce0.15Cu1O4,28
Ba0.2Mo1S2,28
Hg1Pb1.8,28
Hg1Sm0.5Pb2,28
B0.69Mg0.31,28
Al0.2B5Mo1.8,28
Be8Ga1,28
Be22Ga1,28
Bi1Ru1,28
Bi3Sr1,28
Ir2Sr1,28
Ru0.1Zr0.9,28
Ru0.5W0.5,28
Ta0.96Zr0.04,28
B6La1,28
Nb0.88V0.12,28
Y1Ni1.7Mn0.3B2C1,28
Mo0.38Re0.62,28
Lu5Ir3.4Rh0.6Si10,28
Mo6Se5Cl3,28
Os0.06Zr0.94,28
Bi1,28
Mg12Ir19B16,28
Nb1S2,28
Zr2Ru3Si4,28
Li1Fe0.986V0.014As1,28
Ba8Si42Al4,28
Ba1Bi3,28
Mo5.6Ru0.4Se8,28
Lu5Ir3.12Rh0.88Si10,28
Ca1Al1Si1,28
Hf0.5Lu0.5P1.55S0.45,28
Ru0.46V0.54,28
Sc0.01V0.99,28
La0.9Ca0.1Fe1P1O1,27.9
Zr0.985Lu0.015B12,27.9
La0.2Th0.8Pt4Ge12,27.9
Lu5Ir2.8Rh1.2Si10,27.9
Th1Ir1.8Os0.2,27.9
Os0.07Zr0.93,27.9
Mo0.62Os0.38,27.9
In0.75Pb0.25,27.9
Zr0.984Lu0.016B12,27.9
Ba0.67Pt3B2,27.9
Fe0.99Cu0.01Se0.88,27.85
Er0.82Tb0.18Ni2B2C1,27.84
La1Fe1P1O1,27.84
Zr1.5Y0.5P1.25Se0.75,27.84
Na1Pb3,27.8
La0.9Th0.1,27.8
Nb0.29Re0.71,27.8
Li0.1Cs1Ca2Nb3O10,27.8
Dy0.95Tb0.05Ni2B2C1,27.8
Hf1Re2,27.8
La0.9Ce0.1Pt4Ge12,27.8
Nd1.85Ce0.15Cu0.993Ni0.007O4,27.8
Nd0.7Pr0.3Ba2Cu3O7,27.7
Mg1C1Ni2.934Ru0.066,27.7
Sr0.8Mo1S2,27.7
Be13Ga1,27.7
Bi1In2,27.7
C0.78N0.22Th1,27.6
Cr0.1Ti0.3V0.6,27.6
Hf1Tc2,27.6
La0.99Lu0.01,27.6
Mg2Pb1,27.57
Mo0.72Pt0.28,27.5
Mo1S2Sr0.2,27.5
Nb0.29Re0.71,27.5
Nb0.84S0.16,27.5
Nb0.92Sn0.08,27.5
Os0.06Zr0.94,27.5
P1,27.5
C1Hf0.4Nb0.6,27.5
Cr0.1Ti0.3V0.6,27.5
Gd1.2Mo6Se8,27.5
Ba0.67Pt3B2,27.5
Ca1Al0.8Ga0.2Si1,27.5
V3Ga0.5Sn0.5,27.5
Hf0.1Ta0.9,27.5
Mo0.35Re0.65,27.5
Mg1C1Ni2.934Ru0.066,27.5
Mg2Nb1,27.4
Al1Gd0.001La3,27.4
Th3Os4Ge13,27.4
Lu2Fe3Si5,27.4
Mo1.86Ta0.14B1C1,27.4
Ca1Al1Si1,27.3
Ga0.05Nb1Se2,27.3
Zr1Ru1P0.6B0.4,27.3
Lu2Fe3Si5,27.3
Ti1N1,27.3
Sm1Fe0.9Ni0.1As1F0.12O0.88,27.25
Ba8Si40Al6,27.2
Ce0.93Th0.07Ru2,27.2
Sr0.06Mo1S2,27.2
Sr0.08Mo1S2,27.2
Bi3Sr1,27.11
Mo3P1,27.1
Fe1Se0.79S0.21,27.1
V2.79Mo0.21Si1,27.1
La0.99Lu0.01,27.1
Pr0.96Ce0.04Pt4Ge12,27.1
La0.06Th0.94Pb3,27.1
La2.94Ce0.06In1,27.1
Ti0.03V0.97,27.1
Nd0.2Sm0.8Bi1S2F0.3O0.7,27.1
Nd0.2Sm0.8F0.3Bi1S2O0.7,27.05
Ag0.92Sn1.08Se2,27.05
Ca1Al0.9Si1.1,27
Ti0.576V0.384Ru0.04,27
Ta0.2Zr0.8,27
Sr1Fe1.66Co0.34As2,27
Zr2Co0.85Ga0.15,27
Nd1Bi0.94Pb0.06S2F0.3O0.7,27
La1.935Ca0.065Cu1O4,27
Bi0.343In0.657,27
Pb3Th1,27
La3Ru1,27
Lu2Ir3Si5,27
Bi3Sr1,27
Nb0.4Ta0.6,27
Pb0.52Tl0.48,27
Ba0.84K0.16Fe2As2,27
Nb0.713Ga0.195Mn0.093,27
Hf1Os1P1,27
B2Nb1,27
Ba0.75Na0.25Ti2Sb2O1,27
H0.938Pd1,27
Lu5Ir3.8Co0.2Si10,27
Tm1Ni1.88Fe0.12B2C1,27
Pr0.93Ce0.07Pt4Ge12,27
Nd0.6Sm0.4F0.3Bi1S2O0.5,27
Li0.28Cs1Ca2Nb3O10,27
Eu0.003La0.997,27
Nd0.4Sm0.6Bi1S2F0.5O0.5,27
Li0.1K1Ca2Nb3O10,27
Li0.45Nb1O2,27
Nd1.85Ce0.15Cu0.993Ni0.007O4,27
La1.8Sr0.2Cu0.968Zn0.032O4,27
Sr2Ca12Cu24O41,27
Ru0.95Co0.05Sr2Gd1Cu1O8,27
Sb1Ti3,27
Al1Ge1,27
Al13Os4,27
B5Mo1.7V0.3,27
C3Ho0.4Th1.6,27
C0.2N0.8Nb0.8V0.2,27
Ge0.72Nb3.28,27
Ir0.287O0.14Ti0.573,27
K0.4Mo1S2,27
Ir0.1Zr0.9,27
La0.99Y0.01,27
N0.48Nb1,27
Nb1S2,27
Nb0.25Sn0.25V0.5,27
V2Nb1Sn1,27
C1Hf0.3Mo0.7,27
In3Sn1,27
Ir0.287O0.14Ti0.578,27
Nb1Sn1V2,27
V0.509Ti0.434Zr0.057,27
Cu3Mo6S8,27
B2Zr1,27
Y2I0.25Br1.75C2,27
H0.3Li1Nb1O2,27
H0.5Li1Nb1O2,27