formula,Tc,type
Al0.77Nb3.63,18.0,original
N3.69Nb1.1,18.0,original
In0.24Nb3.63Sn0.6,18.0,original
Nb3.63Sn0.7,18.0,original
Cu0.13La1.76Nd1.84O0.48,18.0,original
As1.47Ba0.64Fe2.06Rh0.23,18.0,original
As1.47Ba0.64Fe2.18,18.0,original
As1.47Ba0.64Fe2.2,18.0,original
As1.47Ca0.43Fe2.3Na1.93,18.0,original
As0.65Fe1.02H0.7La1.11,18.0,original
As0.53F0.51Fe1.02P0.19Sm6.8,18.0,original
As1.47Fe2.3K3.63,18.0,original
As0.65Fe1.02Na3.91,18.0,original
As1.47Ba0.64Fe1.69Ru1.19,18.0,original
Nb3.63Sn0.51,18.0,original
Cu0.12La2.23O0.48,18.0,original
Cu0.12La2.26O0.48,18.0,original
Cu0.13La1.69Nd1.84O0.48,18.0,original
Al0.87Nb3.63,18.0,original
Al0.98Nb3.6,18.0,original
Al0.98Nb3.56Ta0.21,18.0,original
Al0.77Nb3.63Zn0.38,18.0,original
Nb2.8Sn0.78Zr2.39,18.0,original
Nb2.49Sn0.78Zr3.31,18.0,original
Nb3.55Sn0.78,18.0,original
As1.47Ca1.05Co0.32Fe2.17,18.0,original
N5.7Nb1.1,18.0,original
Ce0.65Cu0.13O0.48Pr1.42,18.0,original
Cu0.13La2.38O0.48,18.0,original
N4.93Nb0.67Ti1.33,18.0,original
O1.03Ru2.42Sr3.22Y2.04,18.0,original
B1.38Mg3.17,18.0,original
Nb0.63Sn0.11Ta0.55,18.0,original
Nb3Sn0.78Ta2.56,18.0,original
Al0.78Nb3.63,18.0,original
Al0.98Nb3.62,18.0,original
Al0.9Nb3.63,18.0,original
Ga0.3Nb0.71,18.0,original
N4.64Nb1.1,18.0,original
As0.65Fe1.02Li5.77,18.0,original
As0.65Fe0.77Gd8.95Ir0.23,18.0,original
As0.65F0.46Fe0.7La1.11Ru0.55,18.0,original
N5.35Nb1.04,18.0,original
As14.67Ca11.93Er1.84Fe12.54Pt7.15,18.0,original
As1.47Ca0.86Fe1.02Sm0.92,18.0,original
As1.47Co0.77Fe2.05Sr1.46,18.0,original
Ce0.71Cu0.13Eu6.47La0.97O0.48,18.0,original
Cu0.13F2.5Nd9.83O0.34,18.0,original
Ce4.01Cu0.76Ge0.11O1.76Sr3.22Y2.76,18.0,original
Cu0.13La2.18Nd0.54O0.48,18.0,original
Cu0.13La2.19Nd0.47O0.48,18.0,original
Cu0.12La2.33O0.48,18.0,original
Al0.49Nb0.42,18.0,original
N4.28Nb1.1,18.0,original
Al0.98Nb1.1Sn0.78,18.0,original
Ce0.71Cu0.13Gd0.52O0.48Pr1.35,18.0,original
Nb0.81,18.0,original
Al0.19Nb0.78,18.0,original
Al0.54Ge0.13Nb3.72,18.0,original
N2.68Nb1.1,18.0,original
Al0.45Ge0.32Nb3.63,18.0,original
As1.47Ba0.64Co0.77Fe2.05,18.0,original
As1.47Ba0.64Fe2.07Ni0.26,18.0,original
As0.15F0.41Fe1.02P1.03Pr0.75,18.0,original
As1.47Ca1.05Co0.18Fe2.21,18.0,original
S0.95,18.0,original
Bi1.81Cu0.13La0.25O1.04Pb2.48Sr2.52,18.0,original
Ce0.71Cu0.13Nd8.09O0.48Y0.13,18.0,original
N5.82Nb1.1,18.0,original
N5.81Nb1.1,18.0,original
Nb0.85,18.0,original
Nb1.1Ni1.06,18.0,original
Ga0.23Nb0.79,18.0,original
N3.57Nb1.1,18.0,original
Al0.63Nb3.63Zn0.64,18.0,original
Nb2.87Sn0.78Ta3.1,18.0,original
As0.65F0.51Fe1.02Sm6.8,18.0,original
As0.65Co0.32Fe0.89Sm6.8,18.0,original
As0.65Fe0.82Ir0.16Sm6.8,18.0,original
N4.93Nb0.96,18.0,original
Cu0.13O0.47Pr1.41Th0.46,18.0,original
Ba0.12Bi1.47K2.54O0.2,18.0,original
Cu0.13La1.72Nd1.84O0.48,18.0,original
N5.67Nb1.1,18.0,original
Nb3.63Sn1.66,18.0,original
Al0.58Ge0.22Nb3.63,18.0,original
Al0.98Nb3.56W0.25,18.0,original
Al0.98Nb3.45,18.0,original
Al0.32Nb0.51,18.0,original
Cu0.13La0.83O0.48Sm6.8,18.0,original
As1.47Ca1.05Co0.46Fe2.14,18.0,original
As0.65F0.46Fe0.64La1.11Ru0.69,18.0,original
As0.61Ce5.81F0.15Fe1.02,18.0,original
As1.47Fe1.28Ru2.09Sr1.46,18.0,original
N5.05Nb1.1,18.0,original
Br11.06K1.01N5.82Ti4.19,18.0,original
As1.47Ba0.44Fe2.3K0.92,18.0,original
As1.47Ba0.64Co0.29Fe2.18,18.0,original
Ba1.72Cu1.39O1.15Y2.04,18.0,original
B1.62Mg3.17,18.0,original
V0.54,18.0,original
Si0.25V2.32,18.0,original
Ga0.93Nb3.63,18.0,original
Nb3.44Sn0.78,18.0,original
As1.47Ba0.64Co0.3Fe2.18,18.0,original
As1.47Ba0.64Co1.09Fe1.96,18.0,original
As1.47Ca1.05Co0.77Fe2.05,18.0,original
As0.65Fe1.02Gd0.43La0.84,18.0,original
Al2.03Ca4.78Fe2.3O1.03P3.64,18.0,original
As0.22Ba0.64Fe2.3P2.74,18.0,original
Cu0.13La2.33O0.48,17.0,original
Cu0.13Nd9.09O0.47Th0.46,17.0,original
Cu0.13La2.4O0.48,17.0,original
Ca0.18Cu0.98O1.28Pb1.99Sr3.22Y1.32,17.0,original
Cu0.13La2.37O0.48,17.0,original
Cu1.17Ga0.35O1.2Sr3.22Y2.04,17.0,original
Bi3.08Cu0.13O0.48Pr0.59Sr1.9,17.0,original
Bi3.16Ca0.8Ce1.01Cu0.76O1.59Sr3.22,17.0,original
Ba1.72Cu1.97O1.59Y2.04,17.0,original
Bi3.16Cu0.13O1.12Sm2.65Sr2.52,17.0,original
Cu0.13La1.83O0.48Sm1.96,17.0,original
Ba0.91Cu1.39O1.29Pr0.44Sr1.02Y0.61,17.0,original
Ba1.72Cu1.39O1.14Y2.04,17.0,original
Ce0.71Cu0.13O0.48Pr1.41,17.0,original
Ce0.71Cu0.13O0.48Sm12.69,17.0,original
Cu0.13La2.55O0.49,17.0,original
Cu0.13La1.17O0.48Pr0.63,17.0,original
Cu0.13LaO0.48Pr0.63Sr0.1,17.0,original
Cu0.13La2.23O0.48,17.0,original
Ba1.72Cu1.34O1.23Y2.04Zn0.13,17.0,original
Ce0.71Cu0.13Gd4.92Nd6.31O0.48,17.0,original
Cu0.13La2.32O0.48,17.0,original
Cu0.76Eu6.81O1.59Ru2.65Sr3.22,17.0,original
Bi1.47K2.89O0.2,17.0,original
La0.54P22.25Rh7.17,17.0,original
Y2.04,17.0,original
Si0.25V2.32,17.0,original
C0.16Th1.01Y1.32,17.0,original
Ge0.73Nb3.63,17.0,original
Hf3.2Nb0.68,17.0,original
V0.54,17.0,original
Al0.28Nb0.58,17.0,original
C0.13Th1.01Y1.32,17.0,original
Al0.77Be0.13Nb3.63,17.0,original
C10.41H8.04N4.28Na3.91Rb11.45,17.0,original
Li7.24,17.0,original
N2.39Nb1.1,17.0,original
Ga0.18Nb3.63Sn0.6,17.0,original
C0.43Th2.1Y3,17.0,original
As1.47Ca1.05Co0.14Fe3.5,17.0,original
H14.55Si0.25,17.0,original
Fe2.3O1.03P3.64Sc9.97Sr6.74,17.0,original
As1.47Ba0.64Co0.29Fe2.18,17.0,original
As0.65F0.41Fe1.02La1.11,17.0,original
As0.65Fe1.02Li7.24,17.0,original
Al2.03Ca4.78Fe2.3O0.98P3.64,17.0,original
As0.24Fe1.02P0.85Sm6.8,17.0,original
As1.47Ca0.6Fe2.3Na1.37,17.0,original
As1.47Ba0.64Fe2.21,17.0,original
As1.47Ba0.64Co0.36Fe2.08,17.0,original
Fe2.29K4.23Se1.15,17.0,original
As1.47Ba0.43Fe2.3K0.96,17.0,original
As0.65Fe0.96Na3.91,17.0,original
N5.35Nb1.04,17.0,original
As0.28Fe1.02H0.88P0.75Sm6.8,17.0,original
As1.47Ba0.43Fe2.3K0.98,17.0,original
Ba0.64Fe2.3S3.19,17.0,original
Cu0.13Eu1.27La2.26O0.34,17.0,original
N0.49Nb1.1,17.0,original
V0.5,17.0,original
Ba1.72Co1.23Cu1.2O1.29Y2.04,17.0,original
Cu0.13La2.18Nd0.35O0.48,17.0,original
Cu0.13La2.15Nd0.84O0.48,17.0,original
Al0.14Nb3.63Sn0.6,17.0,original
Al0.18Nb0.8,17.0,original
Al0.19V0.54,17.0,original
Nb3.63Sn0.73,17.0,original
Ba1.72Co0.41Cu1.95O1.59Y2.04,17.0,original
As0.65F0.67Fe0.77Ru0.41Sm6.8,17.0,original
As1.47Ca1.05Co0.2Fe2.21,17.0,original
As1.47Ba0.64Fe2.19,17.0,original
Ga0.12Nb3.63Sn0.51,17.0,original
Al0.98Nb3.63,17.0,original
Ce0.59Cu0.13La1.11Nd4.19O0.47,17.0,original
Cu0.12La2.26O0.48,17.0,original
Cu0.13La2.19O0.48Sr0.14,17.0,original
Ba1.72Cu1.39Nd4.34O1.21,17.0,original
Ce0.71Cu0.13Gd5.33O0.47Sm8.53,17.0,original
Ce0.71Cu0.13Gd6.23O0.47Sm7.84,17.0,original
Ca2.14Cl16.44Cu0.13Na0.42,17.0,original
Ga1.1V2.32,17.0,original
Al0.98Nb3.44Ta0.69,17.0,original
C0.36Th2.47Y2.76,17.0,original
C0.41Th2.1Y3,17.0,original
As1.47Ca1.05Co0.53Fe2.12,17.0,original
N0.67Nb0.94,17.0,original
As1.47Ba0.64Co0.27Fe2.19,17.0,original
Ce0.71Cu0.13O0.49Pr1.41,17.0,original
Nb0.78Zr0.33,17.0,original
B1.62Lu3.29Ni4.79,17.0,original
Nb3.63Sn0.34Zr1.77,17.0,original
C0.41Th1.74Y3.24,17.0,original
As1.47Ba0.64Fe2.28,17.0,original
N4.87Nb0.96,17.0,original
Co3.96Ga5.72Pu33.39,17.0,original
H2.49Pd1.02,17.0,original
P0.29Si0.18V2.32,17.0,original
Nb3.63Sn1.66,17.0,original
Al0.98Nb3.6,17.0,original
Cu0.12La2.33O0.48,17.0,original
As0.65Ca1.05Co0.77F5.12Fe0.77,17.0,original
As0.65Fe0.89Nd4.84,17.0,original
As1.47Ba0.64Fe2.3,17.0,original
Al2.03Ca3.54Fe2.3O0.75P3.64,17.0,original
Al2.03Ca4.78Fe2.3O1.03P3.64,17.0,original
Ce0.71Cu0.13Nd9.09O0.48,17.0,original
Cu0.13La2.26O0.48,17.0,original
Ba0.1Bi1.47K2.59O0.2,17.0,original
Cu0.13La2.17Nd0.59O0.48,17.0,original
Br22.17Ca1.92Cu0.13Na1.14,17.0,original
N5.35Nb1.1,17.0,original
Si7.9V59.15,17.0,original
Al0.98Hf0.71Nb3.53,17.0,original
Al0.14Nb0.78,17.0,original
B1.62Ni4.79Sc4.95,17.0,original
Ga0.35Nb3.63Sn0.47,17.0,original
Nb3.63Sb0.16Sn0.6,17.0,original
N5.82Nb1.1,17.0,original
As1.47Ba0.64Co0.91Fe2.01,17.0,original
Cu0.13La2.47O0.48,17.0,original
As1.47Ca1.05Co0.37Fe2.16,17.0,original
As0.65Dy0.55Fe1.02La0.84,17.0,original
As0.65Fe0.86Ir0.1Sm6.8,17.0,original
As1.47Ba0.4Fe2.3K1.12,17.0,original
Cl8.18Li3.57N5.82Ti4.19,17.0,original
As0.65Fe1.02Pr0.48Sr0.31,17.0,original
Ga1.1Nb3.63,17.0,original
Cu0.76Gd8.95O1.59Ru2.65Sr3.22,17.0,original
Ga1.1V0.73,17.0,original
La1.1P22.25Rh7.17,17.0,original
Al0.45Ce2.81Cu1.08Eu14.91O1.88Sr2.04,17.0,original
Cu0.13La2.38O0.48,17.0,original
C0.4Y4.44,17.0,original
Ce0.75Cu0.13O0.48Sm12.65,17.0,original
Nb3.63Sn0.56,17.0,original
Nb0.47Sn0.11Ta1.22,17.0,original
Si0.25V2.3,17.0,original
Nb2.37Sn0.78Ta5.24,17.0,original
Si7.47V59.43,17.0,original
Si3.57V2.32,17.0,original
Al0.16Nb0.78,17.0,original
N3.28Nb1.1,17.0,original
Ga0.53Nb3.63Sn0.34,17.0,original
Ga0.53Nb3.63Zn0.99,17.0,original
Ga0.54Nb3.63Sn0.33,17.0,original
Nb3.25Sn0.78Ti1.16,17.0,original
C0.36Th2.1Y3,17.0,original
N4.4Nb1.1,17.0,original
Li3.57Nb1.1,17.0,original
As1.47Ba0.64Fe2.23,17.0,original
Fe1.8K4.01S0.99Se0.52,17.0,original
As1.47Ba0.64Co0.9Fe2.01,17.0,original
N5.05Nb0.94,17.0,original
Bi1.47Cu0.13La0.4O1.03Pb3.13Sr2.34,17.0,original
Ba1.72Cu1.39O1.27Pr0.24Y1.21,17.0,original
Al0.45Nb3.63Sn0.34,17.0,original
Ni4.79Pd1.94Y2.04,17.0,original
Ga0.29Nb0.72,17.0,original
N3.69Nb1.1,17.0,original
Ga0.7Nb3.63Zn0.68,17.0,original
Ga0.7Nb3.63Sn0.2,17.0,original
C0.38Th2.1Y3,17.0,original
C0.4Th2.1Y3,17.0,original
As0.65Fe1.02Pr0.55Sr0.14,17.0,original
As1.47Fe1.98Pt0.47Sr1.46,17.0,original
As1.47Ba0.64Fe2.29,17.0,original
Cl8.18K2.59N5.82Ti4.19,17.0,original
Cl8.18N5.82Na1.93Ti4.19,17.0,original
Cl8.18N5.82Rb2.8Ti4.19,17.0,original
Br11.06N5.82Rb1.18Ti4.19,17.0,original
Br11.06K2.38N5.82Ti4.19,17.0,original
As0.65F0.46Fe1.02La1.11,17.0,original
Mn0.38Si0.25V2.3,17.0,original
Ce0.71Cu0.13O0.52Pr1.41,17.0,original
Ba1.51Cu2O1.59Y2.04,17.0,original
Ce0.89Cu0.13La1.11O0.48Pr0.61,17.0,original
In0.24Si0.18V2.32,17.0,original
Si7.22V55.01,17.0,original
Ga22.34Nb101.13,17.0,original
Ga0.87Nb3.63Zn0.38,17.0,original
Ga0.87Nb3.63,17.0,original
B1.62Lu3.22Ni4.79,17.0,original
Nb3.63Sn0.69,17.0,original
As1.47Co0.86Eu3.07Fe2.02Sr0.65,17.0,original
Mg0.21N5.05Nb0.97,17.0,original
As1.47Ca0.86Fe1.02,17.0,original
As1.47Ca0.73Co0.16Fe0.94La36.95,17.0,original
B1.62Ni4.79Y2.04,17.0,original
Si0.24V2.32,17.0,original
Ce0.77Cu0.13Nd9.04O0.46,17.0,original
Cu0.12La2.2O0.48Sr0.12,17.0,original
Si0.22V2.32,17.0,original
Al0.87Nb3.63,17.0,original
N75.63Nb1.1,17.0,original
Al0.14B1.62Li1.37Mg1.86,17.0,original
Ge0.19Nb3.63Sn0.47,17.0,original
Ga0.99Nb3.63Zn0.17,17.0,original
Ga0.99Nb3.63,17.0,original
N5.46Nb0.78Ti0.94,17.0,original
As0.65F0.46Fe0.96La1.11,17.0,original
In0.15Nb3.63Sn0.51,17.0,original
As1.47Ca0.8Fe,17.0,original
Nb3.63Sn0.51Tl0.55,17.0,original
Cu0.1La2.26O0.48,16.0,original
Ba0.21Bi1.47K2.05O0.2,16.0,original
Bi3.16Ce1.97Cu0.76O2.22Sm11.23Sr3.22,16.0,original
Ba1.72Cu0.13O1.06Tl8.96,16.0,original
Cu0.13La0.97Nd4.59O0.48Th0.46,16.0,original
Cu0.13La1.11Nd4.09O0.48Th0.46,16.0,original
Cu0.13La2.33O0.48,16.0,original
Cu1.27O1.17Sr3.22V0.1Y2.04,16.0,original
B0.28Cu1.08O1.31Sr2.43Y2.04,16.0,original
Ce0.65Cu0.13La1.11Nd4.14O0.47,16.0,original
Cu0.13K1.5O0.75Sr2.69,16.0,original
Ba0.64Ca1.05Cu0.76O1.31Sr1.46Tl4.41,16.0,original
Ba1.18Cu1.39Gd8.95O1.21Sr0.58,16.0,original
Al0.14Ba0.43Cu1.27O1.37Sr1.81Y2.04,16.0,original
Ce0.59Cu0.13O0.47Pr1.42,16.0,original
Cu0.13La2.12Nd0.59O0.48,16.0,original
Ce0.71Cu0.13O0.48Pr1.39,16.0,original
Ce0.71Cu0.13Nd8.16O0.48,16.0,original
Cu0.76Gd8.95O1.59Ru2.65Sr3.22,16.0,original
Cu0.13La2.3Nd0.35O0.48,16.0,original
Ca0.55Cu0.13La1.11O0.75Tl4.41,16.0,original
Ce0.71Cu0.13Nd9.09O0.48,16.0,original
Cu0.12La2.3O0.48,16.0,original
Ba1.08Cu1.39La1.83O1.29,16.0,original
Ba0.97Cu1.39La1.83O1.28,16.0,original
Ba0.97Cu1.39La1.83O1.31,16.0,original
Cu0.13La2.19O0.48Sr0.14,16.0,original
Cu0.13La2.2O0.48Sr0.12,16.0,original
Ba1.72Cu2O1.59Y2.04,16.0,original
Cu0.13La2.43O0.48,16.0,original
Cu0.13La2.53O0.48,16.0,original
Bi3.16Cu0.13O1.07Sr3.22,16.0,original
Cu0.76Eu6.81O1.59Ru2.37Sr3.22,16.0,original
N5.82Nb1.1,16.0,original
Si0.25V2.3,16.0,original
Ga0.41Nb3.63Sn0.42,16.0,original
Al0.4Nb0.49,16.0,original
B1.62Lu3.29Ni4.79,16.0,original
Al0.98Nb3.53Ti0.22,16.0,original
Al0.98Nb3.5W0.49,16.0,original
B1.62Ni4.79Sc4.95,16.0,original
Br11.06Hf2.1Li7.24N5.82Zr2.85,16.0,original
B1.48F0.72Mg3.17,16.0,original
Al0.63In0.47Nb3.63,16.0,original
Al0.45Nb3.63Zn0.99,16.0,original
In0.24Nb3.63Sb0.16Sn0.42,16.0,original
Al0.45Nb3.63Sn0.34,16.0,original
Ga1.1Nb3.63,16.0,original
Nb2.49Sn0.78Ta4.71,16.0,original
C0.36Th2.83Y2.52,16.0,original
Si0.25V2.32,16.0,original
Cu0.13La2.12O0.48Sr0.22,16.0,original
Cu0.13La2.39Na0.38O0.48,16.0,original
Cu0.13La2.42O0.48,16.0,original
As0.65Fe1.02Li7.24,16.0,original
As0.65Fe0.96Na3.91,16.0,original
As1.47Fe2.1Pt0.25Sr1.46,16.0,original
As1.47Ba0.59Co0.83Fe2.02K0.14,16.0,original
Cu0.12La2.33O0.48,16.0,original
As0.65Co0.32Fe0.89Pr0.75,16.0,original
As0.65Co0.55Fe0.83Pr0.59,16.0,original
As1.47Co1.23Fe1.92Mg3.17O1.03Sr6.74Ti4.19,16.0,original
As0.32Ce5.81F0.15Fe1.02P0.66,16.0,original
Cl8.18K2.59N5.82Ti4.19,16.0,original
As1.47Ba0.64Fe2.16,16.0,original
As0.65Fe0.83Ir0.14Sm6.8,16.0,original
As0.65F0.51Fe0.95Mn0.81Sm6.8,16.0,original
As0.9Ba0.64Fe2.26Mn0.38P1.22,16.0,original
As14.67Ca12.24Fe12.54Ir6.85,16.0,original
As1.47Ba0.64Co0.85Fe2.03,16.0,original
Cu0.13Eu1.27La2.26O0.34,16.0,original
Si7.73V59.55,16.0,original
Si0.25V2.27,16.0,original
Cu0.13La2.26Nd0.84O0.48,16.0,original
Ce0.71Cu0.13O0.48Pr1.41,16.0,original
Al0.45Ge0.32Nb3.63,16.0,original
Nb3.25Sn0.78V0.18,16.0,original
Ga1.1V2.32,16.0,original
As0.65F0.67Fe0.56Ru0.85Sm6.8,16.0,original
As1.06Ba0.64Fe2.3P0.85,16.0,original
As1.47Ba0.39Fe2.3Na0.9,16.0,original
Nb3.63Sn0.6,16.0,original
Ce0.71Cu0.13O0.49Pr1.41,16.0,original
As1.47Ba0.64Co0.86Fe1.97,16.0,original
Ce0.71Cu0.13Gd0.98O0.48Pr1.32,16.0,original
Cu1.3O1.31Pr0.52Re0.17Sr3.22Y0.37,16.0,original
Mo0.16Tc9.24,16.0,original
V0.53,16.0,original
Nb3.63Sb0.41Sn0.42,16.0,original
Si3.57V2.32,16.0,original
Si7.47V59.43,16.0,original
Al0.24Nb3.63Sn0.51,16.0,original
Nb3.63Sb0.28Sn0.51,16.0,original
C0.4Th2.83Y2.52,16.0,original
As0.65Co0.43Fe0.86Sm6.8,16.0,original
As0.65Fe1.02Pr0.59,16.0,original
Ba1.72Cu1.27O1.24Y1.8Zn0.38,16.0,original
As1.47Ba0.64Co0.31Fe2.18,16.0,original
As1.47Fe2.05Pt0.34Sr1.46,16.0,original
As14.67Ca12.24Fe11.86Pt8.44,16.0,original
As0.65FeNa3.91,16.0,original
As1.47Ca1.05Co0.31Fe2.18,16.0,original
B1.62Ni4.79Y2.04,16.0,original
As0.4F0.15Fe1.02La1.11P0.47,16.0,original
Ce0.35Cu0.13La1.11Nd4.39O0.47,16.0,original
Cu0.12La2.26O0.48,16.0,original
Ce0.83Cu0.13Nd8.99O0.48,16.0,original
Ce0.71Cu0.13O0.48Sm12.69,16.0,original
C0.41Y4.44,16.0,original
Al0.14Si0.18V2.32,16.0,original
Ge0.73Nb3.63,16.0,original
Al0.35Nb3.63Sn0.42,16.0,original
As0.65Co0.21Fe0.93Pr0.75,16.0,original
As1.47Ca1.05Co0.68Fe2.07,16.0,original
As0.65Fe0.99Na3.91,16.0,original
As3.12Ba1.72Fe2.25Ti8.52,16.0,original
Bi2.32Cu0.13La0.11O1.03Pb1.51Sr2.69,16.0,original
La2.33Mg0.54O0.48,16.0,original
Ce1.01Cu0.13La1.11O0.48Pr0.59,16.0,original
Cu0.12La2.23O0.48,16.0,original
Cu0.13La2.44O0.48,16.0,original
Ag1.2H2.85Pd1.33,16.0,original
Be0.17Si0.17V2.32,16.0,original
B1.62Lu1.59Ni4.79Sc2.44,16.0,original
B1.62Lu3.29Ni4.77,16.0,original
Al0.98Nb3.26V0.17,16.0,original
Ga0.26Nb0.75,16.0,original
N2.03Nb1.1,16.0,original
Nb3.06Sn0.78Ti1.81,16.0,original
As1.47Ba0.64Fe1.56Ru1.47,16.0,original
As0.65Ca0.35Fe1.02Tb7.75,16.0,original
As0.65Co0.32Fe0.89Sm6.8,16.0,original
Fe1.02Se0.23Te1.13,16.0,original
As0.48F0.51Fe1.02P0.29Sm6.8,16.0,original
As0.65F0.3Fe1.01La1.11,16.0,original
As1.47Ca0.73Fe0.98La36.95,16.0,original
B1.62Lu0.24Ni4.79Y1.8,16.0,original
As1.47Ba0.64Fe1.69Ru1.19,16.0,original
As1.47Ba0.64Co0.29Fe2.13,16.0,original
Ba0.1Bi1.47K2.59O0.2,16.0,original
Ce0.71Cu0.13Gd1.57O0.48Pr1.27,16.0,original
Cd5.88Ce3.41Cu0.76Eu10.96O1.87Pb1.51Sr2.87,16.0,original
Cu0.12La2.25O0.48,16.0,original
Ba0.86Cu1.39O1.31Pr0.44Sr1.11Y0.61,16.0,original
Co2.14Ga5.72Pu33.39Rh0.79,16.0,original
Mn2.94Si0.25V2.15,16.0,original
Al0.98Nb3.44,16.0,original
Mo1.1Ni2.3P1.78,16.0,original
Mo1.1P1.78Ru2.65,16.0,original
C0.36Th3.56Y2.04,16.0,original
As1.47Ba0.64Co0.77Fe2.05,16.0,original
As0.65Fe1.02Pr0.63,16.0,original
As1.47Ba0.64Co0.25Fe2.19,16.0,original
As1.47Ca1.05Co0.14Fe2.23,16.0,original
Ba3.88Cu3.91O3.47Pr1.53,16.0,original
As0.65Ca1.05F5.12Fe1.02,16.0,original
B1.62Mn0.24Ni4.74Y2.04,16.0,original
Ba1.18Cu1.39Nd7.34O1.35,16.0,original
Ba1.72Cu1.39O1.14Y2.04,16.0,original
Cu0.13La2.45O0.48,16.0,original
Al0.98Nb3.25V0.18,16.0,original
Al0.98Nb3.3Ta1.28,16.0,original
Al0.14Nb0.78,16.0,original
Nb0.78,16.0,original
Ga0.24Nb0.78,16.0,original
Ga1.04Nb3.63,16.0,original
C0.31Th2.1Y3,16.0,original
Ga0.31V0.49,16.0,original
As0.65Ca1.05F5.12Fe0.89,16.0,original
As0.61Fe1.02Pr0.48Sr0.31,16.0,original
As0.65Fe1.02H0.84La1.11,16.0,original
Ce0.53Si0.25V2.23,16.0,original
Cu0.12La2.19O0.48Sr0.14,16.0,original
Ga0.24V0.54,16.0,original
Ga0.18Nb0.85,16.0,original
B1.62Lu3.12Ni4.79,16.0,original
Ga0.17V0.58,16.0,original
Ge2.41Nb6.17,16.0,original
Cu0.13La2.4O0.48,16.0,original
Ca1.05Cu0.76O1.27Sr3.22Tl4.41,16.0,original
Cl8.18Li0.34N5.82Zr3.7,16.0,original
Mo7.34Pb2.87S8.22,16.0,original
Al0.25Nb0.6,16.0,original
Al0.98Nb3.44W0.73,16.0,original
C10.41H8.7N4.64Na3.91Rb11.45,16.0,original
Cl8.18Li1.95N5.82Zr3.7,16.0,original
Cl8.18K1.07N5.82Zr3.7,16.0,original
Cl8.18K2.05N5.82Zr3.7,16.0,original
B1.62Lu2.74Ni4.79,16.0,original
B1.62Lu0.17Ni4.79Y1.85,16.0,original
N5.41NbTi0.2,16.0,original
As1.47Ca1.05Co0.55Fe2.11,16.0,original
Br11.06N5.82Na0.86Ti4.19,16.0,original
As1.47Ba0.43Fe2.3Na0.74,16.0,original
As0.68Ba0.64Fe2.3P1.7,16.0,original
Ca2.16Cl16.44Cu0.13Na0.38,16.0,original
Ga0.23V0.54,16.0,original
B1.62Ni4.79Sc4.45,16.0,original
B1.62Ho1.58Lu2.78Ni4.79,16.0,original
N5.52Nb0.47Ti2.02,16.0,original
B1.62Lu3.08Ni4.79,16.0,original
C0.36Th4.29Y1.56,16.0,original
Mo1.1N5.82,16.0,original
As1.47Ba0.64Fe2.22,16.0,original
As1.47Ba0.64Co0.27Fe2.19,16.0,original
Mo7.34Pb3.13S8.78,16.0,original
La2.33O0.48,15.0,original
Cu0.12La2.32O0.48,15.0,original
Ce0.71Cu0.13Eu8.54La0.54O0.48,15.0,original
Ce0.71Cu0.13Eu5.77La1.11O0.48,15.0,original
Ce0.71Cu0.13La1.11Nd4.09O0.48,15.0,original
Bi1.47Cu0.13O1.03Pb3.13Pr0.13,15.0,original
Cu0.13La2.33O0.48,15.0,original
Ca1.09Cu0.76La2.26O1.06,15.0,original
Ba1.72Cu1.39Eu4.04O1.3Pr0.28,15.0,original
Cu0.13La2.48O0.48,15.0,original
Ba1.72Cu0.13O1.03Tl8.96,15.0,original
Ba1.72Cu1.39O1.13Y2.04,15.0,original
B0.28Ba1.18Cu1.08O1.31Sr0.58Y2.04,15.0,original
Ca1.92Cl15.21Na0.54,15.0,original
Ce0.71Cu0.13O0.48Pr1.37,15.0,original
Ce0.71Cu0.13O0.48Sm12.37,15.0,original
Ba1.72Cu1.39O1.18Pr0.28Y1.09,15.0,original
Cu0.13La2.12Nd0.84O0.48,15.0,original
Ba1.72Cu2.15Gd0.8La2.4O2.1,15.0,original
Ba1.4Cu1.39O1.29Pr0.4Sr0.22Yb4.41,15.0,original
Cu0.13La2.17Nd0.54O0.48,15.0,original
Cu0.13La2.23O0.48,15.0,original
Cu0.13La2.19O0.46Sr0.14,15.0,original
Ba1.72Cu1.39O1.22Y2.04,15.0,original
Ce0.71Cu0.13Gd6.59Nd5.39O0.48,15.0,original
Ce0.71Cu0.13Gd0.72O0.48Sm12.05,15.0,original
Ce0.71Cu0.13Gd7.14O0.47Sm7.15,15.0,original
Cu0.12La2.33O0.48,15.0,original
Cu0.13La1.76Nd1.84O0.48,15.0,original
Ce0.29Cu0.13La2.43O0.48,15.0,original
Br11.06Ca2.14Cl8.18Cu0.13Na0.44,15.0,original
Ca2.17Cl16.44Cu0.13,15.0,original
Ba1.01Ce3.77Cu1.39Eu13.73O1.86,15.0,original
,15.0,original
Ce0.83Cu0.13O0.48Pr1.39,15.0,original
B2.51Mo7.34S8.78Sn0.78,15.0,original
Mo0.72Re0.39,15.0,original
Nb1.1Ru8.24,15.0,original
B1.62Ni4.79Y2.04,15.0,original
C10.41H14.55Na15.8,15.0,original
Ca1.05,15.0,original
Al0.98Nb3.48Ti0.38,15.0,original
Al0.14Nb0.78,15.0,original
Ga0.22Nb0.78,15.0,original
C10.41K14.86,15.0,original
Cl8.18Li1.07N5.82Zr3.7,15.0,original
Cl8.18Li0.93N5.82Zr3.7,15.0,original
Cl8.18Li3.94N5.82Zr3.7,15.0,original
Cl8.18Li4.67N5.82Zr3.7,15.0,original
Cl8.18N5.82Na1.93Zr3.7,15.0,original
Cl8.18N5.82Na2.29Zr3.7,15.0,original
Cl8.18K2.38N5.82Zr3.7,15.0,original
B1.62Lu2.27Ni4.79Y0.37,15.0,original
Nb3.06Sn0.78V0.3,15.0,original
N5.82Nb1.1,15.0,original
Mo7.34Pb3.13S8.78,15.0,original
Co4.41Ga5.72Pu33.39,15.0,original
As0.65Co0.21Fe0.93Sm6.8,15.0,original
As0.65Fe1.02Na3.91,15.0,original
As1.47Ca1.05Fe2.23,15.0,original