formula,Tc,type
Cu0.1La2.26O0.48,30.0,original
Cu0.13Gd0.8La2.12O0.48,30.0,original
Ba1.74Cu0.88O1.31Y2.04Zn1.65,30.0,original
Cu0.13La2.19O0.48Sr0.14,30.0,original
Cu0.13La2.26O0.48,30.0,original
Ba3.88Cu3.91O3.27Y4.44,30.0,original
Cu0.51La1.11O0.75Sr1.46Tl1.69,30.0,original
Ba0.64Ca1.05Cu1.27La1.11Ni0.31O1.27,30.0,original
Cu0.13La2.37O0.48,30.0,original
Bi3.16Ca0.55Cu0.76Gd3.51O1.59Sr3.22,30.0,original
Ba0.24Bi1.47K1.89O0.2,30.0,original
Cu1.2Mo0.22O1.34Sr3.22Y2.04,30.0,original
Ca1.05Cu0.76O1.29Pb1.51Sr3.22Y0.85,30.0,original
Cu0.13La2.38O0.48,30.0,original
Cu0.13La2.4O0.48,30.0,original
Cu0.13La2.34O0.48,30.0,original
C10.41Rb17.22,30.0,original
Cu0.13La2.42O0.48,30.0,original
Ba1.72Co1.91Cu1.11O1.33Y1.68,30.0,original
Ce3.41Cu1.39Eu10.96O1.76Sr2.87,30.0,original
Bi3.08Cu0.13Nd1.34O0.48Sr2.78,30.0,original
Cu0.13O0.47Tm14.18,30.0,original
Bi3.16C0.41Cu2.02O5.22Sr13.79,30.0,original
Ba0.24Bi1.47K1.91O0.2,30.0,original
Ba1.72Cu1.36H3.58O1.31Y2.04,30.0,original
Ba1.18Cu1.39La0.4O1.34Y2.04,30.0,original
Cu0.13O0.75Sr3.22,30.0,original
Cu0.13O0.48Tm14.18,30.0,original
Ba0.54K0.41O0.2Pb3.13,30.0,original
Ba1.29Cu1.39O1.19Sr0.4Yb9.41,30.0,original
Bi3.16Cu0.76O2.43Sr6.74,30.0,original
Ba0.27Bi1.47K1.78O0.2,30.0,original
Ba0.16Bi1.47K2.32O0.2,30.0,original
Ba0.28Bi1.47K1.72O0.2,30.0,original
Cu0.13La2.23Nd0.22O0.48,30.0,original
Cu0.13La2.55O0.48,30.0,original
Cu0.13La0.9O0.47Sm6.8,30.0,original
Cu0.13La1.11O0.75Sr0.93Tl4.41,30.0,original
Cu0.13La1.11O0.78Sr1.46Tl4.41,30.0,original
Ba0.86Cu0.13La0.83O0.75Tl4.41,30.0,original
Ba1.72Cu1.34O1.25Y2.04Zn0.15,30.0,original
Ba1.72Cu0.13Hg7.24O0.54,30.0,original
Ba1.4Cu1.39O1.29Pr0.36Sr0.22Yb4.91,30.0,original
Cu0.76Fe0.38Hg3.57O1.23Sr3.22Y1.56,30.0,original
Ba0.64Ca0.43Cu1.39La1.83O1.26,30.0,original
Cu0.13La2.29O0.48,30.0,original
Cu0.13La2.23O0.48,30.0,original
Cu0.13La2.32O0.48,30.0,original
Cu0.13La2.55O0.5,30.0,original
Bi3.16Cu0.13La0.11O1.03Sr2.69,30.0,original
Ba1.72Cu1.36O1.21Y2.04,30.0,original
Cu0.13La2.05Nd0.84O0.48,30.0,original
Cu0.13La2.33O0.47,30.0,original
Ba0.97Cu1.39Eu6.81O1.31Pr0.21Sr0.4,30.0,original
Cu0.76Gd8.95O1.59Ru2.65Sr3.22,30.0,original
Ho10.97O1.03Ru2.37Sr3.22,30.0,original
Cu0.76Gd8.95O1.59Ru2.65Sr3.18,30.0,original
Ba1.94Ca1.05Cu3.56Gd11.67In0.89La2.12O3.99Sr1.11,30.0,original
Cu0.13Sr1.28,30.0,original
Ce4.61Cu0.76Eu8.2O2.15Ru2.65Sr3.22,30.0,original
Cu0.83O1.56Ru2.37Sr3.22Y2.04,30.0,original
Cu0.76Eu6.81O1.59Ru2.65Sr3.22,30.0,original
Cu0.76Gd8.95O1.59Ru2.51Sr3.22,30.0,original
Ca2.29Cl18.09Cu0.13,30.0,original
Ce3.41Cu0.76Gd12.57Nb0.47O2.05Ru1.25Sr3.22,30.0,original
B0.64Mg3.17,30.0,original
Ca2.11Cl16.44Cu0.13,30.0,original
La2.16O0.48Sr0.17Ti0.12,30.0,original
La2.1O0.48Sr0.24Ti0.2,30.0,original
Cu0.13La2.3O0.48,30.0,original
Cu0.12La2.28O0.48,30.0,original
B1.62Mg3.07,30.0,original
B1.62Mg3.01Mn0.67,30.0,original
B1.58Mg3.17,30.0,original
B1.4Mg3.17,30.0,original
B1.53Mg3.17,30.0,original
B1.62Mg2.78Sc0.54,30.0,original
Bi0.63Cu0.76La1.11O1.04Sr1.46Y0.85,30.0,original
As1.47Ba0.34Fe2.3K1.4,30.0,original
As0.93Ba0.64Fe2.3P1.14,30.0,original
As1.47Eu6.81Fe2.3,30.0,original
Cs9.01Fe1.87Se1.15,30.0,original
As1.47Eu3.21Fe2.3K2.7,30.0,original
As14.67Ca12.24Fe12.28Pt10.07,30.0,original
As0.9Ba0.64Fe2.3P1.22,30.0,original
As0.65Fe1.02Mg0.21O0.2Sr3.22V0.66,30.0,original
As1.01Ba0.64Fe2.3P0.96,30.0,original
As0.65Fe1.02N5.82Th3.56,30.0,original
As3.12Ca2.29F10.35Fe4.86Rb5.68,30.0,original
Cu0.76Fe1.02O1.47Sr3.22Y2.04,30.0,original
Fe1.02U21.67,4.0,original
B1.62Ni4.39Tm7.72,4.0,original
Co4.4H9.43Na2.92O0.28,4.0,original
Al0.19La0.76,4.0,original
C0.24Y2.04,4.0,original
Ru8.24Si0.58Th3.56,4.0,original
Ru9.64Si0.58Th3.56,4.0,original
P2.89Se0.17Zr3.7,4.0,original
Bi3.16Pd1.94Pt2.29,4.0,original
Rh0.33Zr2.74,4.0,original
Bi6.29Co0.55O0.48S3.19,4.0,original
Nb0.26Rh0.78Ta0.81,4.0,original
Bi3.16Ir1.62,4.0,original
S2.07Ta5.24,4.0,original
Sn0.72,4.0,original
Fe1.02P1.78Pr0.75,4.0,original
La1.09,4.0,original
Se1.15Ti8.52,4.0,original
In1.63,4.0,original
Cr0.34Os0.77,4.0,original
Lu16.84Rh7.17Si3.27,4.0,original
La1.11,4.0,original
Bi4.85Ni2.3,4.0,original
Bi1.47F2.5La1.11Se1.15,4.0,original
Co4.39H9.43Na2.92O0.28,4.0,original
Sn2.54Th2.65,4.0,original
Sn0.73,4.0,original
Bi6.52O0.48S3.19,4.0,original
Bi1.47Ce2.21F2.5Nd2.84S2.07,4.0,original
As1.47Fe2.3K5.32,4.0,original
Ir0.48Nb0.38Ta1.08,4.0,original
Au1.2La0.88,4.0,original
Ba0.64Bi0.38O0.2Pb1.99,4.0,original
Dy15.71Ir6.85Sc17.49Si3.27,4.0,original
Ir8.59Th3.56,4.0,original
Bi1.47,4.0,original
Lu13.45Rh10.81Sn15.78Y2.04,4.0,original
Ce0.26Cu0.13La2.44O0.48,4.0,original
La3.12Se2.38Y1.09,4.0,original
La3.37Pr0.3Tl4.41,4.0,original
Al0.98La3.98,4.0,original
As0.65Ca1.05F5.12Fe0.77Ni0.31,4.0,original
In0.16Pb0.7Sn0.41Te2.37,4.0,original
Ba1.72Bi3.16Sb1.15,4.0,original
B0.73La1.11N5.82Ni2.3,4.0,original
Ba8.19Ge12.46Si10.32,4.0,original
Ir6.85Lu16.84Si3.27,4.0,original
Ce0.53Cu0.13O0.48Sm12.9,4.0,original
Ce0.71Ru2.23,4.0,original
Se1.15Ti4.19,4.0,original
H0.29S2.07Ta5.24,4.0,original
Ru0.13Zr3.31,4.0,original
Cu0.13Rh3.51S4.3,4.0,original
Co0.32Zr3.31,4.0,original
Co4.41Zr11.4,4.0,original
Zr3.31,4.0,original
S1.17Se0.42Ta5.24,4.0,original
S0.73Se0.66Ta5.24,4.0,original
Te2.37,4.0,original
In1.58,4.0,original
B1.62La0.4Ni4.79Th1.74,4.0,original
Al0.18Nb0.8,4.0,original
La1.11Pt2.29Si0.25,4.0,original
Si0.25W1.42,4.0,original
Ge0.73Nb3.63,4.0,original
Eu5.08Mo7.34S7.88Se0.42Sn0.11,4.0,original
In1.68S8.78V4.7,4.0,original
Ba1.72Sb7.3Sn2.54,4.0,original
Sb4.84Sn2.54Sr1.46,4.0,original
O0.2Rb1.24W5.25,4.0,original
Ir6.85Lu15.14Si3.27Y0.85,4.0,original
La1.11Ru4.05Sn3.87,4.0,original
Ge10.78Os12.44Y6.83,4.0,original
Ba0.64Ga1.1Si0.25,4.0,original
Mg3.17Ni7.28,4.0,original
K0.85O0.2W5.25,4.0,original
Ge10.78La3.98Ru11.04,4.0,original
B0.73Li14.58Pd2.96Pt3.5,4.0,original
As1.47Ba0.64Fe2.24,4.0,original
In0.24Sn0.6Te2,4.0,original
Pb3.13Se1.15Ta5.24,4.0,original
Ge1.57Ir3.36Ta5.24,4.0,original
Bi1.47F1.45La1.11S0.95Se0.54,4.0,original
Bi1.47F1.98La1.11S0.95Se0.54,4.0,original
Bi1.47F2.5La1.11S0.95Se0.54,4.0,original
Ge1.57Y2.04,4.0,original
B10.52Lu0.58Zr2.93,4.0,original
P2.78S0.35Zr3.7,4.0,original
B1.62Nb1.09,4.0,original
Bi2.74Sb0.22Se0.54Te4.87,4.0,original
Bi3.16Na0.12Pd1.94,4.0,original
Li7.24Nb1.1,4.0,original
V0.71,4.0,original
H2.23Nb0.94Pd0.24,4.0,original
Sn0.71,4.0,original
Sn0.74,4.0,original
W0.22Zr3.49,4.0,original
N5.35Nb0.91,4.0,original
Ba0.6Sb2.38Ti8.52,4.0,original
Er0.68Pd3.98Sn0.78Y1.8,4.0,original
In0.24Pb0.66Sn0.39Te2.37,4.0,original
In1.65,4.0,original
Hg36.67Tl8.96,4.0,original
C0.23Y2.04,4.0,original
W2.45,4.0,original
Tc12.33,4.0,original
Pd1.94Te2.37,4.0,original
Br11.06C0.24Cl8.18Y4.44,4.0,original
V0.7,4.0,original
Tc2.44W4.18,4.0,original
Sn0.76,4.0,original
As1.47Ba0.64Pd3.98,4.0,original
S1.62Se0.17Ta5.24,4.0,original
Nb1.1S0.84,4.0,original
Ba0.64Bi0.21Hg1.36O0.2Pb1.67,4.0,original
B3.4Dy10.45Ir2.67Rh4.25,4.0,original
Fe1.02Nd4.84P1.78,4.0,original
Ce2.93Ir5.11Th1.67,4.0,original
Al0.21La0.73,4.0,original
Ir0.32W3.92,4.0,original
V0.73,4.0,original
Pd0.2Ti3.54,4.0,original
Ir1.19Si0.33Th3.56,4.0,original
Pb2.14Se3.09Sn0.3Ti8.52,4.0,original
Hg7.24In1.68,4.0,original
Sn0.78,4.0,original
Os0.96W3.44,4.0,original
Hg3.57In0.78,4.0,original
As0.65Ca1.05F5.12Fe0.96,4.0,original
Dy26.24Ge8.27Os12.44Y5.63,4.0,original
Er2.23Pd3.98Sn0.78Y1.32,4.0,original
K1.67S2.07Ta5.24,4.0,original
Cs3.42S2.07Ta5.24,4.0,original
Co2.12Th1.75,4.0,original
Bi1.47Sn0.78,4.0,original
C0.24Mo1.1Re1.43,4.0,original
C0.24Re1.43W5.25,4.0,original
Cu0.12Rh3.52Si1.26,4.0,original
La1.1,4.0,original
Nb0.47Re0.69,4.0,original
Pb1.02Tl2.82,4.0,original
Sb0.41Sn0.42,4.0,original
Sn0.78V2.32,4.0,original
B1.62Dy10.45Ni4.79,4.0,original
B1.62Co1.41Lu3.29Ni4.37,4.0,original
Sn0.69V2.32,4.0,original
Co0.55Ti3.54,4.0,original
Zr3.54,4.0,original
Re2.92Si0.25,4.0,original
La1.11Rh3.52Si0.58,4.0,original
Al0.98Hf9.88Pd3.98,4.0,original
Bi3.16Se1.77,4.0,original
B14.08Ir32.96Mg32.74,4.0,original
Bi1.47Pd1.94,4.0,original
Ir4.95Lu6.67Si1.59,4.0,original
Ir1.62Li14.58Si0.92,4.0,original
In0.24Sn0.6Te1.88,4.0,original
B1.62Ge0.73Ta26.68,4.0,original
As1.47Ba0.64Pt4.72,4.0,original
As0.65Sn0.78,4.0,original
As0.64Sn0.78,4.0,original
Bi1.47F10.35La1.11S0.95Se0.54,4.0,original
Bi2.82Pb0.53Pd1.94,4.0,original
Nb1.1Se1.15,4.0,original
Au0.68La0.68,4.0,original
Zr3.42,4.0,original
As0.65Co0.77Fe0.77Sm6.8,4.0,original
Ru0.31Zr3.06,4.0,original
Co1.19Zr2.57,4.0,original
Ni0.51Zr2.62,4.0,original
Bi4.85Sn0.78,4.0,original
In1.59,4.0,original
Dy0.97Fe3.58Lu6.34Si1.59,4.0,original
Bi1.47F1.98La1.11S0.84Se0.6,4.0,original
Bi1.47F1.98La1.11S0.8Se0.62,4.0,original
Ru0.57Zr2.7,4.0,original
Nb0.44Rh0.82,4.0,original
Nb0.92Rh1.77,4.0,original
Be0.69Zr0.34,4.0,original
Gd0.47La1.02Sn2.54,4.0,original
Ta0.42Zr3.31,4.0,original
Ir0.89Rh0.55Te4.87,4.0,original
As0.65H0.22La1.11Ni2.3,4.0,original
Bi1.47F1.98La1.11S0.81Se0.62,4.0,original
Sn0.77,4.0,original
La3.98Te9.86,4.0,original
In1.41,4.0,original
Pb3.13Tl8.96,4.0,original
La3.98Ru11.04Sn11.37,4.0,original
Lu6.67Rh10.81Sn15.78Y6.83,4.0,original
As2.3Cr1.47K5.32,4.0,original
La8.28Sb18.37Zn2.02,4.0,original
Ir6.85Lu16.84Si2.93,4.0,original
Pd0.18Ti3.58,4.0,original
As1.47Fe2.15Ni0.11Sr1.46,4.0,original
Er1.45Pd3.98Sn0.78Y1.56,4.0,original
Pd3.98Sn0.78Tm1.88Y1.44,4.0,original
Ru0.41Zr2.92,4.0,original
Nb0.63Pt0.77,4.0,original
Nb6.17Pt7.15,4.0,original
Al0.45Ca1.05Ga0.53Si0.25,4.0,original
Hg6.51,4.0,original
Ir0.93Os4.29Th3.56,4.0,original
Fe1.02S0.28Se0.29,4.0,original
In1.66,4.0,original
Sn0.7Zn0.15,4.0,original
Mg3.17Ni7.16,4.0,original
Rh0.21Zr3,4.0,original
LaLu0.17,4.0,original
Au1.47La0.83,4.0,original
Nb1.1Se1.77,4.0,original
La1.1Pt2.29Si0.25,4.0,original
Hf9.88P3.08S0.17,4.0,original
Cu0.12La2.33O0.48,4.0,original
Co4.41H9.43Na1.18O0.28,4.0,original
Na1.14Pb3.13S5.42Ta10.6,4.0,original
Ba3.88Ca4.78Si15.36,4.0,original
Co4.41H4.68Na1.33O0.28,4.0,original
Ni1.23Th1.49,4.0,original
H13.08Na1.53Pb3.58S5.58Ta10.6,4.0,original
Bi4.85Mo1.1,4.0,original
Cd11.81Mo6.09S6.54,4.0,original
Cr0.48Ti12.85,4.0,original
Li2.83Mo1.1S2.07,4.0,original
S0.95Se0.54Ta5.24,4.0,original
Sn0.11Ta2.56V0.14,4.0,original
Bi3.16Pd6.02,4.0,original
Sn0.78Ta10.6V0.73,4.0,original
Pd1.94Pt2.29,4.0,original
Ga1.1Mo2.35,4.0,original
C0.24Th0.24Y1.83,4.0,original
B1.62Ho10.97Ni4.74,4.0,original
Mo6.09Ru2.65Se4.83,4.0,original
Br8.28C0.24Cl10.25Y4.44,4.0,original
B1.62Er6.1Ni4.79Tb2.74,4.0,original
Ge0.73La3.98,4.0,original
B1.62Mo2.03Ru3.35,4.0,original
As0.65La0.97Ni2.3,4.0,original
Cu0.76Li7.24P3.64,4.0,original
Bi6.54O0.48S3.08,4.0,original
Ni4.79Se1.15Tl4.41,4.0,original
In0.47Sb0.74,4.0,original
Eu6.81Pt2.29Si0.92,4.0,original
Bi1.47F2.5Pr0.75S2.07,4.0,original
Bi1.47F2.5La1.11S1.17Se0.42,4.0,original
In0.24Sn0.6Te2.12,4.0,original
In0.24Sn0.6Te1.75,4.0,original
Ir1.62Sn3.43,4.0,original
Bi1.47F2.5La1.11S2.07,4.0,original
P1.78Rh0.7Ru1.39,4.0,original
Sn0.64,4.0,original
Bi0.7Cd2.32Sn0.12,4.0,original
In1.6,4.0,original
As0.65Fe2.3P1.78Sr1.46,4.0,original
Bi1.47Eu3.35F5.12La0.4S0.95Se0.54,4.0,original
In1.61,4.0,original
Ca1.05Pb7.18Tl3.28,4.0,original
La3.34Pr0.32Tl4.41,4.0,original
As0.65H0.55La1.11Ni2.3,4.0,original
In0.42Sn0.51Te2.37,4.0,original
Rh0.27Zr2.86,4.0,original
Ga0.81Si0.33Sr1.46,4.0,original
In1.36Mg0.48,4.0,original
Ti3.75,4.0,original
Pd0.1Ti3.76,4.0,original
Bi1.47Ce2.21F3.55Nd2.84S2.07,4.0,original
Bi1.35,4.0,original
Rh0.26Zr2.89,4.0,original
Er3Pd3.98Sn0.78Y1.09,4.0,original
Ir1.28Y0.13,4.0,original
Cu0.12La2.4O0.48,4.0,original
Pd3.98Sn0.78Tm3.83Y0.85,4.0,original
Ni0.54Ti0.13Zr2.31,4.0,original
Au7.67Th7.22,4.0,original
Cd2.08Sn0.53,4.0,original
Cd11.81Sn0.78,4.0,original
Zr3.41,4.0,original
As0.65Fe1.02La1.06,4.0,original
B1.62Nb0.97,4.0,original
Mo7.34Pb3.13S4.3Se2.99,4.0,original
Zr3.64,4.0,original
In0.33Tl3.28,4.0,original
As0.65F0.2La1.11Ni2.3,4.0,original
B10.52Lu0.14Zr3.43,4.0,original
Pd1.94S0.95Zr3.7,4.0,original
Ir5.11La0.54Th1.37,4.0,original
Sn0.75,4.0,original
Pt2.29V2.32,4.0,original
Ta5.03,4.0,original
Co8.91Cu0.13S4.3,4.0,original
Ti2.59V0.16,4.0,original
Ce0.32Ge9.94Pr0.68Pt9.58,4.0,original
Ce0.11La1.04Ru5.45,4.0,original
In1.62,4.0,original
C0.24S2.07Ta10.6,4.0,original
Ir1.62Os3.03Th3.56,4.0,original
Bi1.47Ce2.81Eu3.35F5.12S1.17Se0.42,4.0,original
La0.11Ru5.45Th2.47,4.0,original
Au15.42Pb3.13,4.0,original
Co4.41H9.43Na1.22O0.28,4.0,original
Bi1.47K5.32,4.0,original
Sn2.54Yb9.91,4.0,original
Ce0.7Ru2.23,4.0,original
In1.68Sb1.15,4.0,original
Au3.79Ge0.32,4.0,original
B4.29Hf1.9Nb2.11,4.0,original
Ti4.05,4.0,original
K1.5O0.2Re1.43,4.0,original
Sr1.46,4.0,original
Ge10.78Lu10.06Os12.44,4.0,original
F0.41O0.17Rb0.49W5.25,4.0,original
Zr3.59,4.0,original
B1.62C0.24Y2.04,4.0,original
Ta5.24V1.53,4.0,original
La1.11Sn1.66,4.0,original
B1.62Ir1.62Mo2.35,4.0,original
B1.8Nb1.1,4.0,original
Ca1.05Ir1.62Si0.92,4.0,original
Ni4.79O1.03P3.64Sc9.97Sr6.74,4.0,original
C0.59Fe1.02Y4.44,4.0,original
Ge0.73Ir5.11Lu6.67Si1.26,4.0,original
Pb1.03Sn0.36Te2.37,4.0,original
P1.78S0.95Zr3.7,4.0,original
Bi1.47F2.5La1.11S0.73Se0.66,4.0,original
Pb1.77Se3.09Sn0.41Ti8.52,4.0,original
Mo1.1Na1.14S2.07,4.0,original
Mo1.1Na1.53S2.07,4.0,original
Bi1.47Cl8.18Te2.37,4.0,original
Ga5.72V1.53,4.0,original
B1.62Dy6.55Lu1.15Ni4.79,4.0,original
Ni0.31Zr2.93,4.0,original
As0.65F0.51La1.11Ni2.3,4.0,original
In0.24Pb0.53Sn0.42Te2.37,4.0,original
Bi3.16K5.32,4.0,original
La1.11Ru11.04Sb14.68,4.0,original
Ge2.41Pd1.94Y4.44,4.0,original
Ta1.17V0.54,4.0,original
Ta4.71,4.0,original
Lu3.29Rh10.81Sn15.78Y9.22,4.0,original
Rh0.33Zr2.75,4.0,original
Ru0.18Zr3.24,4.0,original
Ag0.37Tl3.96,4.0,original
Rh0.86Ta1.38,4.0,original
Ni0.5Ti0.65Zr1.93,4.0,original
Ru5.45Th3.56,4.0,original
Ir0.58Os4.91Th3.56,4.0,original
H2.45Nb0.85Pd0.31,4.0,original
La1.01Yb0.62,4.0,original
Sb1.15,4.0,original
Bi1.47F1.45Nd4.84S2.07,4.0,original
As1.47Cd35.55,4.0,original
Ca2.29Li2.39Nb3.63O2.15Rb5.68,4.0,original
Ca2.29Li3.28Nb3.63O2.15Rb5.68,4.0,original
Co4.36H9.43Na2.92O0.28,4.0,original
Zr3.28,4.0,original
B3.4Gd2.61Rh7.17Y1.32,4.0,original
Pt2.29Si0.25Ta5.24,4.0,original
As1.47Ba0.64Fe2.01Ni0.38,4.0,original
Bi1.47Ce2.81Eu3.35F5.12S1.4Se0.29,4.0,original
Mo0.47Pd0.92,4.0,original
Mo0.47Pb1.51,4.0,original
C0.24Th0.61Y1.59,4.0,original
Ga1.45Si0.15Sr1.46,4.0,original
Ti2.98,4.0,original
O0.2Rb1.07W5.25,4.0,original
Ag0.16Bi6.46O0.48S3.19,4.0,original
Bi3.16Nb0.34Se1.77,4.0,original
Co4.41H9.43Na0.9O0.28,4.0,original
In1.71Te2.37,4.0,original
Ru8.24Si0.58Y2.04,4.0,original
Ru9.64Si0.58Y2.04,4.0,original
Fe3.58Lu6.2Sc0.64Si1.59,4.0,original
Fe3.58Lu6.2Si1.59,4.0,original
Bi1.47Ce5.81F4.59S2.07,4.0,original
Ba1.72Bi2.74Sb1.45,4.0,original
Ca2.29Li0.63Nb3.63O2.15Rb5.68,4.0,original
Ba1.72Cu1.39O1.22Pr0.36Y0.85,4.0,original
Cu0.13La1.8Nd1.84O0.48,4.0,original
S2.07W5.25,4.0,original
Na1.14S5.42Sb1.15Ta10.6,4.0,original
H13.08Na1.53S5.6Sb1.34Ta10.6,4.0,original
As0.65Ge0.73,4.0,original
Cd1.13Tl3.96,4.0,original
Ti4.08,4.0,original
La0.68,4.0,original
Cu0.13Rh3.52Se2.38,4.0,original
Ir5.11Y2.04,4.0,original
Nb0.97Pd0.1,4.0,original
Ti3.84,4.0,original
Tl3.96,4.0,original
As1.47Sn2.54,4.0,original
In1.68Te2.38,4.0,original
Ru0.13Ti3.76,4.0,original
Ba4.42Na11.44Si15.36,4.0,original
Mo7.34Nd4.84S8.78,4.0,original
Ga0.8Si0.34Sr1.46,4.0,original
S8.78Tl2.64V4.7,4.0,original
Hf9.88Ir1.62Si0.25,4.0,original
Ca1.05Ga0.8Si0.34,4.0,original
Ga0.53Si0.42Sr1.46,4.0,original
B1.62Ce5.81Os9.3,4.0,original
Ce5.81Ru5.36,4.0,original
Ta5.03W0.15,4.0,original
Ti3.66,4.0,original
Ti4.07,4.0,original
Gd0.25Ru5.45Y1.95,4.0,original
Zr3.68,4.0,original
Ge1.57La3.98Rh3.52,4.0,original
Li21.92Mo18.58Se11.58,4.0,original
Mo4.84Re2.92Te19.84,4.0,original
Zr3.7,4.0,original
Dy52.56Os12.44Si4.95,4.0,original
La1.11Ru5.45Si0.58,4.0,original
As0.65La0.83Ni2.3,4.0,original
H3.58Pd1.94,4.0,original
Ir3.36Rh27.22S16.61,4.0,original
Ba0.64O0.2Pb2.32Sb0.22,4.0,original
As0.65Co0.21Fe0.93Pr0.59,4.0,original
Ba1.72Cu1.27O1.24Y1.92Zn0.38,4.0,original
Bi6.54O0.48S3.02,4.0,original
Ir1.22Se1.15,4.0,original
Pb1.02Sn0.36Te2.37,4.0,original
As0.65F1.35Fe0.9La1.11Zn0.16,4.0,original
In0.24Se0.11Sn0.6Te1.63,4.0,original
Bi3.4F1.14S2.07,4.0,original
Bi1.47Eu3.35F5.12La0.4S1.4Se0.29,4.0,original
C0.24La1.11Ni2.3,4.0,original
Bi1.47F0.41La1.11S0.95Se0.54,4.0,original
Bi3.16Nb0.15Se1.77,4.0,original
Ge1.57Pt2.29Zr19.11,4.0,original
Lu3.29Os6.17,4.0,original
Cu0.13Th7.22,4.0,original
Mg3.17Ni6.78Ru0.41,4.0,original
As0.65Ca1.05Co1.05F5.12Fe0.69,4.0,original
Gd0.33In1.68La3.91,4.0,original
Ru1.09V0.38,4.0,original
H1.65Nb0.75Pd0.26W0.46,4.0,original
C0.24La1.11Ni1.68,4.0,original
Bi1.47Ce2.81F2.5Nd2.34S2.07,4.0,original
H3.17Pd1.94,4.0,original
Co1.41Zr2.39,4.0,original
Ni0.57Zr2.52,4.0,original
Mo0.16Nb0.78,4.0,original
La1.07Sn2.54,4.0,original
Ba0.64Bi0.46Sb1.88Ti8.52,4.0,original
Cr0.34Ru0.63,4.0,original
Dy0.97Pd3.98Sn0.78Y1.8,4.0,original
H2.12Nb0.85Pd0.31,4.0,original
Ir1.62P1.78Sc4.95,4.0,original
Ta5.11,4.0,original
In1.68Te2.37,4.0,original
Al0.98Cu0.13,4.0,original
Mo2.35,4.0,original
B3.4Ir6.15Rh0.6Sc0.44Y1.8,4.0,original
B1.97Nd4.34Pt4.96,4.0,original
Al0.35Ca1.05Ga0.64Si0.25,4.0,original
In0.18Tl3.64,4.0,original
C0.24La1.11Ni1.8,4.0,original
Ge0.74Rh1.7,4.0,original
Bi1.22,4.0,original
P2.24Sc3.45Se0.39Zr4.85,4.0,original
Co4.41Ti8.52,4.0,original
Ti2.2V0.23,4.0,original
La1.03Ru5.45Th0.13,4.0,original
P0.75Ru1.07,4.0,original
C0.24Th1.01Y1.32,4.0,original
Ce0.65Ge9.94Pr0.64Pt9.58,4.0,original
Hg0.24In1.6,4.0,original
La1.09Pt2.29Si0.25,4.0,original
B1.62Dy8.34Ni4.79Tm1.49,4.0,original
In1.68,4.0,original
In1.78Te2.37,4.0,original
B10.52Lu0.47Zr3.04,4.0,original
C10.41Na7.87Rb5.68,4.0,original
Cd11.81Ni7.28,4.0,original
Au1.62La0.8,4.0,original
B0.73Zr3.7,4.0,original
Rh1.7,4.0,original
Ce5.81Pt0.34Ru4.89,4.0,original
La0.83Lu0.58,4.0,original
Mo3.59S0.95Se1.77,4.0,original
Rh1.53Ti1.59W0.2,4.0,original
Hf4.89Mo0.47,4.0,original
Mo7.34Se4.83Sn0.78,4.0,original
Ga0.58Si0.4Sr1.46,4.0,original
Sb0.17V0.54,4.0,original
Co8.86Cu0.13S4.3,4.0,original
Co8.73Cu0.13S4.3,4.0,original
F0.51O0.16Rb0.49W5.25,4.0,original
Co19.41Sn11.1Yb29.9,4.0,original
H1.79Nb0.85Pd0.31,4.0,original
Nb1.1Ni4.79Sn0.78,4.0,original
Ge0.73La1.11Pt2.29,4.0,original
In3.49O0.2,4.0,original
Nb2.37Pb3.58Se3.08,4.0,original
Al0.98Pd3.98Zr3.7,4.0,original
In0.16Pb1.25Sn0.27Te2.37,4.0,original
As1.47Ba0.64Fe2.02Ni0.36,4.0,original
B5.18Rh14.46Sr4.98,4.0,original
Ce5.81Ir5.11,4.0,original
Ir0.64Ta2.91,4.0,original
In1.68N5.82,4.0,original
B0.73Lu3.29Ni1.8,4.0,original
Ce5.39Gd0.52Ru5.45,4.0,original
Zr3.58,4.0,original
H2.16Nb0.8Pd0.39,4.0,original
B2.51Ru19.44,4.0,original
B1.62Ru3.35W9.23,4.0,original
Bi3.33Se1.77,4.0,original
Rh0.95Ta2.08,4.0,original
Rh0.4Ti2.34,4.0,original
Rh1.7W5.25,4.0,original
Rh0.4Ti2.35,4.0,original
B0.73Li14.58Pd0.51Pt6.42,4.0,original
As1.47Ba0.64Co0.27Fe2.03Zn0.21,4.0,original
In1.23Sn1.88Th3.56,4.0,original
La3.55Pr0.21Se2.38,4.0,original
Bi1.47Ce2.81Eu3.35F5.12S0.95Se0.54,4.0,original
Ni2.3Zr11.4,4.0,original
W10.56,4.0,original
W15.87,4.0,original
In0.24Pb1.44Sn0.18Te2.37,4.0,original
Bi3.16Nb0.19Se1.77,4.0,original
Ce2.21La0.54Ru8.24Si0.58,4.0,original
Nb1.1Se0.85Te1.13,4.0,original
In1.67,4.0,original
Ni0.48Ti0.88Zr1.75,4.0,original
Ca1.05Ga0.99Si0.25,4.0,original
Co4.34H9.43Mn0.17Na1.14O0.28,4.0,original
C0.24Lu3.29,4.0,original
Sn2.54Th3.56,4.0,original
La0.89Sn2.54Tm1.18,4.0,original
Zr3.37,4.0,original
Ni0.52Ti0.4Zr2.12,4.0,original
Ir3.36S4.3Zn0.38,4.0,original
Ce4.85Gd0.8Ru5.45,4.0,original
In5.3Mo18.58Se11.58,4.0,original
Ir0.55Nb0.14Ta1.89,4.0,original
C0.24La1.11Ni1.93,4.0,original
In0.24Pb0.4Sn0.46Te2.37,4.0,original
Cu0.12La2.23O0.48,4.0,original
Cs10.49O1.03Os6.17,4.0,original
Pb3.58S5.58Ta10.6,4.0,original
Ba8.19Ga6.87Si13.34,4.0,original
Cs10.49O1.03Os3.03,4.0,original
C0.15Ge2.41La6.85,4.0,original
Co2.14Fe0.38Ti4.19,4.0,original
Fe0.77U21.67,4.0,original
V0.66,4.0,original
Ge0.32,4.0,original
Ge0.15Sb0.78,4.0,original
Mo3.59S2.07Se1.15,4.0,original
N5.82Th3.56,4.0,original
Ta5.24,4.0,original
Cr1.47Ru2.65,4.0,original
Co6.68Cu0.45S4.3,4.0,original