formula,Tc,type
Bi3.16Ca1.05Cu0.76O1.59Sr3.22,85.0,original
Ba1.72Cu1.39O1.23Y2.04,85.0,original
Ba1.72Cu1.39O1.31Y2.04,85.0,original
Ca1.05Cu0.76O1.31Pb1.51Sr3.22Tl2.14,85.0,original
Ba1.72Cu1.36O1.3Y2.04,85.0,original
Ba1.72Cu0.13O1.03Tl8.96,85.0,original
Bi1.47Ca0.43Cu0.76O1.59Pb3.13Sr3.22Y0.85,85.0,original
Bi3.16Ca1.05Cu0.76O1.65Sr3.22,85.0,original
Ba1.72Cu1.36O1.27Y2.04,85.0,original
Bi2.49Ca0.55Cu0.76Nd1.84O1.66Pb1.18Sr3.22,85.0,original
Bi13.3Ca7.27Cu5.17O8.82Sr10.27,85.0,original
Ba1.08Cu2.02O1.59Sr0.75Yb8.91,85.0,original
Ba1.29Ca0.3Cu2.02O1.59Sr0.4Yb9.91,85.0,original
Bi1.47Ca1.05Cu0.13Sr1.46,85.0,original
Ba1.72Ca0.1Co0.96Cu1.24O1.27Y1.47,85.0,original
Ba1.72Cu1.39Lu2.95,85.0,original
Ba1.72Bi0.12Cu0.13Hg5.77O0.53,85.0,original
Bi3.16Ca1.05Cu0.76O1.64Sr3.22,85.0,original
Ca0.8Cu0.76O1.26Sr3.22Tl4.41Y0.13,85.0,original
Ba1.72Cu0.13Hg7.24O0.5,85.0,original
B0.73Ca4.78Cu2.65O2.99Sr3.22,85.0,original
Ba1.72Cu1.39O1.26Y2.04,85.0,original
Ba0.64Cu1.36O1.33Sr1.46Y2.04,85.0,original
Bi3.16Ca0.92Cu0.76O1.66Sr3.22,85.0,original
Ba1.72Cu1.36O1.29Y2.04,85.0,original
Ba1.72Cu1.29O1.4Y2.04,85.0,original
Ba1.72Cu1.38O1.31Y2.04,85.0,original
Ba1.72Cu1.39Lu3.29O1.31,85.0,original
Ba1.72Cu1.39O1.3Y1.8,85.0,original
Ba1.72Cu1.39La0.25O1.29Y1.09,85.0,original
Ba1.72Cu1.39La0.54O1.31Y0.61,85.0,original
Ba1.67Cu1.39Gd9.4O1.3,85.0,original
Ba1.72Cu1.39O1.27Y2.04,85.0,original
Ba1.72Cu2.02O1.59Tm7.33,85.0,original
Ba1.72Cu1.39O1.17Y1.56,85.0,original
Ba0.86Cu1.39Dy10.45O1.28Sr1.11,85.0,original
Ba1.72Ca0.12Cu1.39Er4.55Hf1.4O1.32,85.0,original
Bi3.5Ca1.05Cu0.76O1.59Sr2.73,85.0,original
Ba1.72Cu1.39O1.3Y1.68,85.0,original
Ba1.72Ca0.3Cu0.76Hg10.19O1.53Tl2.6Y1.09,85.0,original
Bi6.54Ca3.54Cu2.02O3.82Sr4.98,85.0,original
Ba1.72Ca0.68Cu0.76Gd2.61O1.31Tl4.41,85.0,original
Ba1.72Cu0.13O1.59Y2.04,85.0,original
Ba1.72Co0.68Cu1.28Er6.25O1.23,85.0,original
Cu1.38O1.31Y2.04,85.0,original
Ba0.97Cu1.39O1.31Sr0.93Y2.04,85.0,original
Ba1.72Cu1.39Nd4.34O1.21,85.0,original
Ba1.72Cu1.39Eu6.81O1.31,85.0,original
Bi6.54Ca1.67Cu2.02O3.96Sr6.74Tm3.83,85.0,original
Ba1.51Cu1.39Dy10.45O1.28,85.0,original
Ba1.72Cu1.39O1.29Y1.8,85.0,original
Ba1.72Cu1.39Gd8.04Hf0.9O1.28,85.0,original
Ba1.72Cu1.39O1.25Y1.56,85.0,original
Bi2.66Ca0.95Cu0.76Nd0.25O1.64Pb0.86Sr3.22,85.0,original
Ba1.72Cu1.39O1.31Y1.8,85.0,original
Ba1.72Cu1.39O1.26Y1.8,85.0,original
Ba1.72Cu1.39O1.26Y1.56,85.0,original
Ba1.72Cu1.39Gd5.78O1.26,85.0,original
Bi3.16Ca0.68Cu0.13O1.08Sr1.99,84.0,original
Bi3.16Ca1.05Cu0.76O1.59Sr3.22,84.0,original
Ba1.72Cu2.02O1.59Y1.92,84.0,original
Ba0.86Cu2.02O1.59Sr1.11Yb8.91,84.0,original
Ba1.72Cu1.39O1.26Y2.04,84.0,original
Bi1.47Ca1.05Cu0.13Sr1.46,84.0,original
Ba1.72Co0.55Cu1.3O1.29Y1.8,84.0,original
Ba1.72Ca0.18Co1.23Cu1.2O1.29Y1.32,84.0,original
Ba1.72Cu1.39Gd8.24O1.31,84.0,original
Ba1.72Cu1.39Gd8.95H0.37O1.28,84.0,original
Ba1.51Cu1.39O1.3Y1.56,84.0,original
Ba1.72Ca0.1Co0.96Cu1.24Er5.79O1.29,84.0,original
Bi3.16Ca1.05Cu0.76O1.67Sr3.22,84.0,original
Bi2.49Ca2.29Cu1.39O2.18Pb1.18Sr3.22,84.0,original
Ba0.64Cu1.39Eu6.81O1.3Sr1.46,84.0,original
Bi3.16Ca1.05Cu0.76O1.66Sr3.22,84.0,original
Ba0.21Ca0.3Cu1.39La0.25Nd2.84O1.27,84.0,original
Ca2.17Cu1.39O1.95P0.85Sr3.22,84.0,original
Ca2.17Cu1.39O1.98P0.85Sr3.22,84.0,original
Ca1.05Cu0.76O1.31Sr2.34Tl4.41Tm3.83,84.0,original
Ca1.05Cu0.76O1.31Sr2.34Tl4.41Yb4.91,84.0,original
Ba1.72Cu1.39O1.31Y2.04,84.0,original
Ba1.72Ca0.43Cu0.76Hg10.19O1.52Tl2.6Y0.85,84.0,original
Ba1.72Cu1.38O1.25Sm6.8,84.0,original
Ba1.72Cu1.39O1.27Y2.04,84.0,original
Ba1.72Cu1.39O1.28Y1.56,84.0,original
Ca0.8Cu0.76O1.31Rb1.65Sr3.22Tl3.05,84.0,original
Bi6.54Ca2.17Cu2.02O3.9Sr6.74Tm0.71,84.0,original
Bi6.54Ca2.04Cu2.02O3.93Sr6.74Tm1.49,84.0,original
Bi3.16Ca1.05Cu0.76I0.98O1.65Sr3.22,84.0,original
Ba1.72Cu2.02O1.59Y1.68,84.0,original
Ba1.72Cu1.39Gd6.23Hf1.4O1.29,84.0,original
Ba1.72Cu2.02O1.59Y1.86,84.0,original
Ba1.72Cu1.39Li3.57O1.31Y2.04,84.0,original
Ba1.72Cu1.34O1.31Y2.04,84.0,original
Ba1.72Ca0.12Cu1.39Gd5.33O1.25,84.0,original
Ba1.72Cu1.39O1.24Y2.04,84.0,original
Ba1.72Cu1.39O1.26Sm6.8,84.0,original
Ba0.64Cu1.39O1.31Sr1.46Y2.04,84.0,original
Ba1.72Cu1.39O1.28Tm7.72,84.0,original
Ba0.64Cu1.39O1.26Sr1.46Y2.04,84.0,original
Ba1.72Cu1.36O1.31Y2.04,84.0,original
Ba1.72Cu2.02O1.59Y1.8,84.0,original
Ba1.72Cu2.02O1.59Y1.88,84.0,original
Ba1.72Cu1.36O1.3Y2.04,84.0,original
Ba1.61Nd4.84O1.27,84.0,original
Ba0.64Cu1.39O1.3Sr1.46Y2.04,84.0,original
Ba1.72Cu1.37O1.31Y2.04,84.0,original
Ba1.72Cu1.39O1.3Y1.9,84.0,original
Ba1.72Cu0.82O1.26Y2.04,84.0,original
Ba1.64Cu2.02O1.59Y2.04,84.0,original
Ba1.72Cu2.02O1.59Tm7.17,84.0,original
Ba1.72Cu1.39O1.29Y1.8,84.0,original
Ba1.65Cu1.34Eu6.81O1.31,84.0,original
Ba1.72Cu1.38O1.31Y2.04,84.0,original
Ba1.72Cu2.02Er7.26O1.59,84.0,original
Bi3.16Ca0.99Cu0.76O1.59Sr3.22,84.0,original
Bi3.5Ca1.05Cu0.76O1.59Sr2.73,84.0,original
Ba1.72Cu1.39O1.23Y2.04,83.0,original
Ba1.72Cu1.39O1.26Y2.04,83.0,original
Ba1.72Cu1.33O1.31Y2.04,83.0,original
Bi6.54Ca3.29Cu2.02O3.94Sr4.98Tm1.49,83.0,original
Bi3.16Ca1.67Cu0.76O1.64Sr2.34,83.0,original
Ba1.72Cu1.39O1.31Y2.04,83.0,original
Ba1.72Cu1.39O1.3Y1.64,83.0,original
Ba1.72Cu2.02O1.59Y2.04,83.0,original
Bi3.16Ca1.05Cu0.76O1.59Sr3.22,83.0,original
Bi1.47Ca0.3Cu0.76O1.59Pb3.13Sr3.22Y1.09,83.0,original
Bi6.54Ca3.54Cu2.02O3.89Sr4.98,83.0,original
Ba0.64Cu1.39Dy10.45O1.29Sr1.46,83.0,original
Ba1.72Co0.55Cu1.3O1.26Y1.92,83.0,original
Ba0.64Cu1.39Dy10.45O1.3Sr1.46,83.0,original
Ba1.56Cu1.39O1.31Sm7.84,83.0,original
Ba1.08Ca0.3Cu1.39La0.54O1.33Y1.09,83.0,original
Ba1.18Cu1.39Nd4.84O1.29Sr0.58,83.0,original
Ba1.72Cu1.39O1.21Y1.68,83.0,original
Ca1.05Cu1.27O1.45Sr3.22,83.0,original
Ba1.72Cu1.39O1.3Y1.8,83.0,original
Ba1.72Cu1.36Dy10.45O1.23,83.0,original
Ba1.72Cu1.37O1.28Sm6.8,83.0,original
Ba1.72Cu1.38Dy10.45O1.23,83.0,original
Ba1.72Cu0.13Hg7.24O0.53,83.0,original
Ba0.64Cu1.39Gd8.95O1.29Sr1.46,83.0,original
Ba1.72Cu1.34Er7.65O1.3,83.0,original
Ba1.72Cu1.39Eu6.12O1.25,83.0,original
Ba1.72Cu0.12Hg7.24O0.5,83.0,original
Bi3.33Ca1.05Cu0.75O1.59Sr2.87,83.0,original
Ba1.72Cu1.39La0.11O1.29Y1.32,83.0,original
Ba1.72Cu1.38O1.29Y2.04,83.0,original
Ba1.72Cu1.39Er6.49O1.31,83.0,original
Ba1.72Cu1.39O1.28Y1.56,83.0,original
Ba1.72Cu1.39Er6.87Hf0.9O1.27,83.0,original
Ba1.72Ca0.12Cu2.02O1.59Y1.44,83.0,original
Ba1.72Cu1.39O1.3Y1.56,83.0,original
Ba1.72Cu1.39Gd6.68Hf1.4O1.28,83.0,original
Ba1.72Cu1.39O1.25Y2.04,83.0,original
Ba1.72Cu1.39O1.23Y1.8,83.0,original
Ba1.72Cu1.39O1.24Y2.04,83.0,original
Ba1.72Cu1.39Nd4.84O1.32,83.0,original
Ba1.72Cu1.39Er6.87O1.29,83.0,original
Bi2.66Ca1.04Cu0.76O1.6Pb0.86Sr3.22,83.0,original
Ba1.72Co0.77Cu1.27O1.31Y1.56,83.0,original
Ba1.72Ca0.12CoCu1.24O1.31Y1.44,83.0,original
Ba1.18Ca0.43Cu1.39La0.4O1.3Y0.85,83.0,original
Bi3.5Ca1.05Cu0.76O1.59Sr2.73,83.0,original
Bi6.54Ca2.29Cu2.02O3.89Sr6.74,83.0,original
Ba1.29Ca0.18Cu1.39O1.19Sr0.4Yb6.91,83.0,original
Ba1.72Cu1.39Gd8.5O1.3,83.0,original
Ba1.18Ca0.3Cu1.39La0.4O1.32Y1.09,83.0,original
Ba1.72Cu1.39Eu6.81O1.31,83.0,original
Ba1.72Cu2.02O1.59Y1.92,83.0,original
Ba1.72CoCu1.24O1.32Y1.56,83.0,original
Ba1.72Cu1.37O1.31Y2.04,82.0,original
Ba1.72Cu1.32O1.31Y2.04,82.0,original
Ba1.72Cu1.39O1.28Y2.04,82.0,original
Ba1.72Cu0.13O1.01Tl8.96,82.0,original
Ba1.29Cu2.02O1.54Sr0.4Y1.92,82.0,original
Ba0.43Cu1.39O1.26Sr1.81Y2.04,82.0,original
Ba1.72Cu1.39O1.25Y2.04,82.0,original
Ba3.88Cu3.91O3.52Y4.44,82.0,original
Bi3.16Ca1.05Cu0.76O1.59Sr3.22,82.0,original
Ba1.72Ca0.1Co0.14Cu1.36O1.26Y1.47,82.0,original
Ba1.72Ca0.25Co1.5Cu1.17O1.28Y1.18,82.0,original
Ba1.72Cu2.02O1.59Y1.98,82.0,original
Ca1.05Cu0.76O1.31Pb1.51Sr3.22Tl2.14,82.0,original
Ba1.51Cu2.02O1.59Yb9.91,82.0,original
Ba1.72Cu0.13Hg7.24O0.51,82.0,original
Ba1.72Cu1.36O1.27Y1.92,82.0,original
Ba0.64Cu1.39Gd8.95O1.31Sr1.46,82.0,original
Ba1.72Cu1.37O1.29Y2.04,82.0,original
Ba1.72Cu1.39Gd8.95H1.5O1.28,82.0,original
Ba1.51Cu1.39O1.3Y2.04,82.0,original
Ba1.4Cu1.39La0.11O1.32Y1.8,82.0,original
Ba1.4Ca0.18Cu1.39La0.11O1.29Y1.32,82.0,original
Ba1.08Ca0.18Cu1.39La0.54O1.35Y1.32,82.0,original
Ba1.29Ca0.3Cu1.39La0.25O1.3Y1.09,82.0,original
Ba0.97Ca0.3Cu1.39La0.68O1.35Y1.09,82.0,original
Ba1.18Ca0.43Cu1.39La0.4O1.3Y0.85,82.0,original
Ba0.86Ca0.43Cu1.39La0.83O1.35Y0.85,82.0,original
Ba0.97Cu1.39La0.68O1.31Y0.61,82.0,original
Ba0.86Ca0.55Cu1.39La0.83O1.33Y0.61,82.0,original
Ba0.75Ca0.55Cu1.39La0.97O1.35Y0.61,82.0,original
Ba1.58Cu1.39La1.11O1.29,82.0,original
Ba1.51Cu1.39Nd4.84O1.29,82.0,original
Ba1.4Cu1.39Nd4.34O1.22Sr0.4,82.0,original
Ba1.72Cu1.39O1.26Y1.8,82.0,original
Ba1.72Cu1.39O1.22Y1.8,82.0,original
Bi3.16Ca1.05Cu0.76O1.65Sr3.22,82.0,original
Ba1.29Cu1.39O1.3Sr0.4Yb9.91,82.0,original
Ba3.88Ca1.05Cu2.65N1.68O3.27Y2.04,82.0,original
Ca2.29Cu1.39O1.94P0.85Sr3.22,82.0,original
Ba1.72Ca0.18Co1.23Cu1.2O1.32Y1.32,82.0,original
Ca0.22Cu0.13Sr0.75,82.0,original
Ba1.72Cu2.02O1.59Y2.04,82.0,original
Ca1.05Cu0.76Lu1.59O1.31Sr2.34Tl4.41,82.0,original
Ba1.72Cu2.02O1.58Y2.04,82.0,original
Ba1.51Cu2.02O1.58Y2.04,82.0,original
Ba1.29Cu2.02O1.58Sr0.4Y2.04,82.0,original
Ba1.08Cu2.02O1.58Sr0.75Y2.04,82.0,original
Ba1.72Cu1.3Er7.65Ga0.12O1.23,82.0,original
Ba1.61Cu1.39O1.3Y1.8,82.0,original
Ba1.72Cu1.19Fe0.15O1.41Y2.04,82.0,original
Ba1.72Cu1.14Fe0.26O1.42Y2.04,82.0,original
Ba1.72Cu1.37Dy10.45O1.28,82.0,original
Ba1.72Cu1.37Dy10.45O1.24,82.0,original
Ba1.72Cu1.39O1.3Pr0.13Yb7.91,82.0,original
Ba0.64Cu1.39O1.31Sr1.46Y2.04,82.0,original
Ba1.72Cu1.39O1.31Y2.04,82.0,original
Ba1.18Cu1.39Gd8.95O1.29Sr0.58,82.0,original
Bi2.49Cu1.39O1.31Sr0.4Yb9.91,82.0,original
Ba1.72Cu0.13Hg7.24O0.49,82.0,original
Ba1.72Cu0.12Hg7.24O0.5,82.0,original
Ba1.72Cu1.39La0.68O1.31Y0.37,82.0,original
Ba1.72Cu1.39O1.27Y1.56,82.0,original
Ba1.72Ca1.05Cu0.76F10.35O0.48,82.0,original
Ba1.72Cu2.02O1.59Y1.97,82.0,original
Ba1.72Cu1.39O1.26Y2.04,82.0,original
Ba1.72Cu1.39O1.31Y1.8,82.0,original
Ba1.61Cu1.39O1.28Y2.04,82.0,original
Ba1.51Cu1.39O1.31Y2.04,82.0,original
Ba1.72Cu1.39O1.3Y1.68,82.0,original
Ba1.72Cu1.39Gd7.59Hf1.4O1.27,82.0,original
Ba1.72Cu1.39O1.3Y1.49,82.0,original
Ba1.72Ca1.05Cu0.76O1.31Tl4.41,82.0,original
Ba1.72Cu1.33O1.31Y2.04,82.0,original
Ca2.17Cu1.39Ge0.32O1.95Sr3.22,82.0,original
Cu1.37O1.31Y2.04,82.0,original
Ba1.72Cu1.39O1.3Y1.8,82.0,original
Bi3.16Ca0.68Cu0.76O1.59Sr3.22Y0.37,82.0,original
Ba1.72Cu1.39O1.3Y1.56,82.0,original
Ba1.72Cu2.02O1.6Y2.04,82.0,original
Ba1.72Cu1.39Nd4.34O1.3,82.0,original
Ba1.29Cu2.02O1.59Sr0.4Y2.04,82.0,original
Ba1.72Ca0.12Cu1.39Gd5.33Hf1.4O1.31,82.0,original
Bi3.16Ca1.05Cu0.76O1.63Sr3.22,82.0,original
Bi2.66Ca0.97Cu0.76Nd0.15O1.62Pb0.86Sr3.22,82.0,original
Ba1.72Cu2.02O1.59Tm7.48,82.0,original
Ba1.08Cu2.02O1.59Sr0.75Y2.04,82.0,original
Bi3.16Ca1.79Cu0.76O1.65Sr2.16,82.0,original
Cu0.13O0.48Y1.8,81.0,original
Ba1.72Cu1.33O1.15Y2.04,81.0,original
Ba1.72Cu1.39O1.29Y1.8,81.0,original
Ba1.72Cu2.02Ho10.42O1.59,81.0,original
Ba1.72Cu2.02O1.59Y2.04,81.0,original
Bi6.54Ca3.54Cu2.02O3.9Sr6.74,81.0,original
Bi6.54Ca2.91Cu2.02O3.97Sr4.98Tm3.83,81.0,original
Ca1.05Cu0.76Nd3.34O1.31Sr1.99Tl4.41,81.0,original
Ba1.72Cu1.37O1.28Y2.04,81.0,original
Ba1.72Cu0.13O1.04Tl8.96,81.0,original
Ba1.72Cu1.39Gd8.95O1.26,81.0,original
Bi3.16Ca1.05Cu0.76O1.59Sr3.22,81.0,original
Ba0.64Cu0.13O0.62Tl3.41Zn2.02,81.0,original
Ba1.61Cu1.39Eu7.5O1.33,81.0,original
Ba1.08Cu1.39La0.54O1.3Y0.61,81.0,original
Ba1.72Cu1.39O1.21Y1.56,81.0,original
Ba0.64Cu1.39O1.29Sr1.46Y2.04,81.0,original
Ca2.04Cu1.39Ge0.23O1.95Sr3.22Y0.13,81.0,original
Ba1.51Ca0.1Co0.96Cu1.24Er5.79O1.29,81.0,original
Bi3.16Ca1.05Cu0.76O1.67Sr3.22,81.0,original
Ba1.29Cu1.39O1.26Sr0.4Yb9.91,81.0,original
Ca1.05Cr0.23Cu1.08O1.45Sr3.22,81.0,original
Ba0.64Cu1.39Eu6.81O1.3Sr1.28,81.0,original
Bi2.82Ca1.05Cu0.76O1.59Pb0.53Sr3.22,81.0,original
Ba1.72Co0.41Cu1.32O1.31Y2.04,81.0,original
Ba1.72Cu1.33O1.26Y2.04,81.0,original
Ba1.72Cu1.37O1.3Y2.04,81.0,original
Ba1.72Cu0.13Hg7.24O0.56,81.0,original
Ba1.4Cu1.39O1.28Sr0.22Yb9.91,81.0,original
Ba1.4Cu1.39O1.29Sr0.22Yb9.41,81.0,original
Ba1.4Cu1.39O1.28Sr0.22Yb8.91,81.0,original
Ba1.72Cu1.36Dy10.45O1.23,81.0,original
Ba1.72Cu1.38O1.26Sm6.8,81.0,original
Ba1.72Cu1.38Dy10.45O1.28,81.0,original
Ba1.72Cu1.39O1.26Pr0.75,81.0,original
Bi3.16Ca1.05Cu0.76O1.63Sr3.22,81.0,original
Ba1.72Cu1.33O1.29Y2.04,81.0,original
Ba1.72Cu1.37Er7.65O1.29,81.0,original
Ba1.03Cu2.02O1.59Sr0.82Y2.04,81.0,original
Bi2.66Ca1.05Cu0.76O1.59Pb0.86Sr3.22,81.0,original
Ba1.72Cu1.39La0.83O1.31Y0.13,81.0,original
Ba1.72Cu2.02O1.59Sc0.44Y1.8,81.0,original
Ba1.72Ca2.29Cu1.39F9.3O1.09,81.0,original
Ba1.72Cu1.39Er4.94Hf1.4O1.27,81.0,original
Ba1.72Cu1.39O1.18Y1.56,81.0,original
Bi2.66Ca1.02Cu0.76O1.61Pb0.86Sr3.22,81.0,original
Ba1.72Cu1.39H3.29O1.29Y2.04,81.0,original
Ba1.72Cu2.02O1.59Y1.8,81.0,original
Ba1.35Cu2.02O1.59Sr0.31Y2.04,81.0,original
Ba1.72Cu1.39O1.23Y2.04,81.0,original
Ba1.72Ca0.18Cu1.39Gd4.87O1.21,81.0,original
Ba1.29Cu1.39Dy10.45O1.28Sr0.4,81.0,original
Ba1.72Cu1.39O1.2Y1.68,81.0,original
Ba1.72Cu1.39Gd7.14Hf1.4O1.27,81.0,original
Ba1.72CoCu1.24O1.32Y1.68,81.0,original
Ba1.51Cu1.39O1.32Y2.04,81.0,original
Ba1.72Cu1.39O1.2Y2.04,81.0,original
Ba1.72Cu1.33O1.31Y2.04,81.0,original
Ba1.72Cu1.39O1.27Y2.04,81.0,original
Ba1.72Cu1.39O1.28Y2.04,81.0,original
Bi2.66Ca1.05Cu0.76O1.61Pb0.86Sr3.22,81.0,original
Ba0.21Ca0.43Cu1.39La0.25Nd2.34O1.25,81.0,original
Ba0.36Cu1.39O1.31Sr1.92Y2.04,81.0,original
Ba1.08Cu2.02O1.59Sr0.75Y2.04,81.0,original
Ba1.29Cu2.02O1.59Sr0.4Y2.04,81.0,original
Ba1.4Cu1.39La0.11O1.34Y2.04,81.0,original
Ba2.8Ca1.05Cu3.91La3.98O4.01,81.0,original
Ca0.43Cu1.36Ho5.45O1.59Pb6.37Sr3.22,81.0,original
Ba1.29Ca0.18Cu1.39O1.19Sr0.4Yb6.91,81.0,original
Ba0.64Cu1.39O1.28Sr1.46Y2.04,81.0,original
Ba1.29Cu1.39O1.28Sr0.4Yb9.91,81.0,original
Ba1.72Cu1.38O1.31Y2.04,81.0,original
Ba1.72Cu2.02Er7.65O1.59,81.0,original
Ba1.51Cu1.39La1.4O1.31,80.0,original
Ba1.72Cu1.39O1.28Y2.04,80.0,original
Bi3.16Ca7.27Cu4.54O4.66Sr3.22,80.0,original
Bi3.42Ca1.26Cu0.76O1.59Sr2.66,80.0,original
Bi6.54Ca3.41Cu2.02O3.92Sr4.98Tm0.71,80.0,original
Ba1.72Cu2.02O1.59Y2.04,80.0,original
Ba1.51Cu1.39Nd5.84O1.3,80.0,original
Bi3.16Ca1.05Cu0.76O1.59Sr3.22,80.0,original
Ba1.72Cu2.02O1.6Y2.04,80.0,original
Ba1.72Ca1.05Cu0.76O1.31Tl4.41,80.0,original
Bi3.16Ca0.92Cu0.76Gd0.8O1.59Sr3.22,80.0,original
Ba0.64Cu1.39Dy10.45O1.3Sr1.46,80.0,original
Bi13.3Ca7.27Cu5.17O8.84Sr10.27,80.0,original
Ba0.64Ca1.05Cu1.39La1.11O1.31,80.0,original
Ba1.51Cu2.02O1.59Yb9.91,80.0,original
Ba1.29Cu2.02O1.59Sr0.4Yb9.91,80.0,original
Ba1.08Cu2.02O1.59Sr0.75Yb9.91,80.0,original
Ba0.86Cu2.02O1.59Sr1.11Yb9.91,80.0,original
Ca1.05Cu0.76O1.31Pb0.7Sr3.22Tl3.28,80.0,original
Bi6.54Ca3.54Cu2.02O3.91Sr4.98,80.0,original
Ba0.64Cu1.39O1.3Sm6.8Sr1.46,80.0,original
Ba0.64Cu1.39Eu6.81O1.3Sr1.46,80.0,original
Ba1.72Cu2.02O1.59Y1.56,80.0,original
Bi3.16Ca0.99Ce0.11Cu0.76O1.59Sr3.22,80.0,original
Ba1.94Cu2.02O1.59Y2.04,80.0,original
Ba1.67Cu2.02O1.59Y1.92,80.0,original
Ba1.67Cu2.02Gd8.5O1.59,80.0,original
Ba1.72Cu2.02O1.59Tm7.72,80.0,original
Ba0.64Ca1.05Cu0.76O1.31Sr1.46Tl4.41,80.0,original
Ba1.72Cu1.39O1.24Y2.04,80.0,original
Ba1.18Cu1.39La0.4O1.34Y1.56,80.0,original
Ba1.45Ca0.12Cu1.39La1.11O1.3,80.0,original
Ba2.34Ca0.87Cu3.28La3.37O3.32,80.0,original
Ba1.72Cu1.39O1.26Y1.56,80.0,original
Ba1.72Cu0.13O1.59Y2.04,80.0,original
Ba1.72Cu0.13Hg7.24O0.49,80.0,original
Ba1.72Cu2.02Er7.41O1.59,80.0,original
Ba1.72Cu1.37O1.29Y2.04,80.0,original
Ba1.72Ca0.18Cu1.39Lu2.27O1.21,80.0,original
Ba2.8Ca1.05Cu3.91Gd4.42La3.26O3.92,80.0,original
Ba2.69Ca1.3Cu3.91Gd5.33La2.98O3.98,80.0,original
Ba1.29Cu1.39O1.26Sr0.4Yb9.41,80.0,original
Ba1.29Cu1.39O1.25Sr0.4Yb9.41,80.0,original
Ba3.88Cu3.91O3.54Y4.44,80.0,original
Ba1.72Cu1.39O1.22Y1.8,80.0,original
Ba2.8Ca1.05Cu3.91La3.26O3.98Y0.85,80.0,original
Ca2.04Cu1.39O2.02P0.85Sr3.22Y0.13,80.0,original
Ba2.8Ca1.05Cu3.91Fe8.7La3.26O3.98Y0.85,80.0,original
Ba1.02Ca0.3Cu1.39La0.61O1.35,80.0,original
Bi0.46Ca7.14Cu10.01O7.45Pb0.86Sr5.16Y0.37,80.0,original
Bi2.82Ca1.05Cu0.76O1.59Pb0.53Sr3.22,80.0,original
Ca1.05Cu0.76O1.31Sr2.34Tb6.91Tl4.41,80.0,original
Ca1.05Cu0.76Dy5.18O1.31Sr2.34Tl4.41,80.0,original
Ca1.05Cu0.76Ho5.45O1.31Sr2.34Tl4.41,80.0,original
Ba1.72Cu2.02Er7.65O1.59,80.0,original
Ba1.72Cu0.13Hg7.24O0.55,80.0,original
Ba1.72Cu1.39O1.25Y2.04,80.0,original
Ba1.72Cu0.13Hg7.24O0.53,80.0,original
Ba1.4Cu1.39O1.29Sr0.22Yb8.41,80.0,original
Ba1.72Cu1.38O1.31Y2.04,80.0,original
Ba1.72Cu1.08Fe0.38O1.43Y2.04,80.0,original
Ba0.37Cu1.39O1.29Sr1.9Y2.04,80.0,original
Bi3.16Ca1.05Cu0.76O1.66Sr3.22,80.0,original
Ba1.72Cu1.39O1.31Y2.04,80.0,original
Ba1.4Cu1.39La0.11O1.34Y2.04,80.0,original
Ba1.72Cu1.39O1.23Y2.04,80.0,original
Ba1.72Cu1.33O1.29Y2.04,80.0,original
Ba1.72Cu1.36O1.29Y2.04,80.0,original
Ba1.72Cu1.36O1.28Y2.04,80.0,original
Ba1.72Cu0.13Hg7.24O0.48,80.0,original
Bi3.16Ca1.05Cu0.76O1.67Sr3.22,80.0,original
Ba2.8Ca1.05Cu3.91Gd4.42La3.26O3.97,80.0,original
Bi2.66Ca1.05Cu0.76O1.59Pb0.86Sr3.22,80.0,original
Bi0.8Ca0.68Cu0.76Nd1.34O1.3Pb0.53Sr3.22,80.0,original
Ba1.72Cu1.08Fe0.38O1.41Y2.04,80.0,original
Ba1.72Cu1.37O1.31Y2.04,80.0,original
C10.58Cl24.7H3.58,80.0,original
Ba1.72Cu1.39O1.59Y2.04,80.0,original
Fe1.02Se0.54,80.0,original
Nb0.39Ti2.28,9.0,original
Nb0.26Ti2.63,9.0,original
Hf3.9V1.53Zr2.16,9.0,original
Ta0.96W4.18,9.0,original
La3.98Tl4.41,9.0,original
As1.47Ba0.64Fe1.38Ru1.86,9.0,original
As0.65Ca1.05Co1.05Fe0.69H3.58,9.0,original
As1.47Ca0.8Fe,9.0,original
B3.4Ir3.36Rh3.52Y2.04,9.0,original
N5.45Ta5.24,9.0,original
Fe1.02Se0.48,9.0,original
Fe1.02Se0.44,9.0,original
Cu0.12La2.33O0.48,9.0,original
Bi3.16Cu0.13O1.03Sr3.22,9.0,original
Ca2.29Nb1.1O0.48,9.0,original
Cu0.13La2.37O0.48,9.0,original
Ba1.72Cu1.39O1.13Y2.04,9.0,original
Mo1.1,9.0,original
Ag4.94Mo5.84S6.54,9.0,original
B4.29Mo2.22Zr0.23,9.0,original
Bi1.47Pb3.13Sb1.15,9.0,original
Mo0.91Ta0.69,9.0,original
In0.78La3.98Tl2.14,9.0,original
N4.64Nb1.1,9.0,original
Ta0.15V1.53Zr3.51,9.0,original
Nb1.1Se1.15,9.0,original
Nb3.63Pt2.17,9.0,original
Hf9.88V1.53,9.0,original
V0.54,9.0,original
Mo0.66Re0.39,9.0,original
Nb0.24Ti2.63,9.0,original
B1.62Lu3.29Ru2.65,9.0,original
Re1.16,9.0,original
B1.71Mo6.09P1.59,9.0,original
Nb1.09,9.0,original
Ga0.23Mn0.4Nb0.75,9.0,original
Nb1.05,9.0,original
Nb0.34Zr2.16,9.0,original
B1.62Er1.07Lu2.78Ru2.65,9.0,original
B3.4Er7.41Rh7.17Tm1.1,9.0,original
Hf1.9V1.53Zr2.93,9.0,original
Fe1.02Sb0.14Se0.38,9.0,original
Hf9.88N5.82,9.0,original
Hf0.41Mo1.03,9.0,original
B1.62Ho8.21Lu0.74Ni4.79,9.0,original
Ce0.71Cu0.13La1.11Nd4.09O0.48,9.0,original
Bi1.47K5.86O0.2,9.0,original
Cu0.13La2.4O0.48,9.0,original
B4.29Mo2.1Sc0.94,9.0,original
Bi0.88Pb1.02,9.0,original
Ir1.62Mo1.1,9.0,original
Ir1.62Mo3.59,9.0,original
Mo0.91Pt0.22,9.0,original
Re1.11Ta0.47,9.0,original
Si0.25V1.99Zr1.46,9.0,original
Bi0.73Pb1.31,9.0,original
Nb0.47Zr1.39,9.0,original
B1.62Co0.68Lu3.29Ni2.08,9.0,original
H0.95Rh1.7Zr7.55,9.0,original
Hf7.89Ti0.72V1.53,9.0,original
B1.62Er7.65Ni4.74,9.0,original
Ge0.65V2.32,9.0,original
Tc24.69Y2.04,9.0,original
FeTe2.12,9.0,original
Ce0.59Cu0.13O0.48Pr1.42,9.0,original
F0.41Fe1.02La1.11P1.4,9.0,original
Fe1.02Se0.5,9.0,original
As1.47Co0.96Eu2.87Fe1.99Sr0.7,9.0,original
As14.67Ca12.24Fe12Pt8.17,9.0,original
B1.62Ho8.76Lu0.58Ni4.79,9.0,original
B1.62Ho9.87Lu0.24Ni4.79,9.0,original
B1.62Ho10.42Ni4.79,9.0,original
B1.62Er0.68Lu2.95Ru2.65,9.0,original
As1.47Ba0.64Co0.86Fe1.92Zn0.13,9.0,original
IrRh0.42Se1.15,9.0,original
Nb1.08,9.0,original
Nb1.02Ta0.21,9.0,original
B3.4Er7.65Rh7.17,9.0,original
As0.65Fe0.96Pr0.75,9.0,original
B1.62Ni4.79Pr0.13Y1.56,9.0,original
Nb0.19Ta0.31Ti2.63,9.0,original
B3.4Rh7.17Sc3.7Th0.83,9.0,original
B3.4Er6.72Rh7.17,9.0,original
Nb0.2Ta0.29Ti2.63,9.0,original
B1.62Ho7.66Lu0.91Ni4.79,9.0,original
B1.62Ho9.31Lu0.41Ni4.79,9.0,original
As0.65Ca1.05F5.12Fe0.83Ni0.18,9.0,original
B1.62Lu2.95Ru2.65Tm0.71,9.0,original
Bi1.47K3.3O0.18,9.0,original
B0.25Mo0.26P0.21,9.0,original
F0.41Fe1.02P1.4Pr0.75,9.0,original
La0.76P22.25Rh7.17,9.0,original
Ce0.71Cu0.12Nd9.09O0.48,9.0,original
Bi1.81K4.23O0.2,9.0,original
Bi1.47Ca0.12K3.96O0.2,9.0,original
Ba0.64O0.2Pb2.64,9.0,original
Nb3.63Pt2.29,9.0,original
Bi0.38Pb1.99,9.0,original
Ce0.77La0.89,9.0,original
Ir0.39Mo0.36Nb0.21,9.0,original