formula,Tc
Sr1.75K0.25Cu1C1O5,13.000
Nd1.3Ba1.3Ca0.4Cu3O6.912,13.000
Bi1.95Sr1.65La0.4Cu1F0.8O5.4,13.000
Pr1.83Ce0.17Cu1O3.99,13.000
Ba1.6Sr0.4Yb0.8Ca0.2Cu3O6.04,13.000
Pr1.665Y0.185Ce0.15Cu1O4,13.000
La1.855Ba0.145Cu1O4,13.000
La1.79Nd0.1Ba0.11Cu1O4,13.000
Sr0.5Rb0.5Bi1O3,13.000
Ru1Sr2Gd0.98Ce0.02Cu2O8,13.000
La1.763Sr0.237Cu1O4,13.000
Tl1Ba0.2Ca0.8La1Cu1O5,13.000
Nd1.85Ce0.15Cu0.99Fe0.01O4,13.000
Nd1.85Ce0.15Cu0.98Zn0.02O4,13.000
Y1Ba2Cu2.76Zn0.24O7,13.000
Dy1Ba2Cu2.8Zn0.2O6.95,13.000
La1.74Sr0.26Cu1O4,13.000
La1.76Sr0.24Cu0.995Zn0.005O4,13.000
Nd2Cu1F0.2O4,13.000
Nd0.925Gd0.925Ce0.15Cu1O4,13.000
Sm1.665Gd0.185Ce0.15Cu1O4,13.000
C0.9N0.1Sr2Cu1O5.35,13.000
Pr1.83Ce0.17Cu1O4,13.000
Ru0.97Co0.03Sr2Gd1Cu1O8,13.000
Ca1.9Na0.1Cu1Cl2O2,13.000
C0.44Mo0.56,13.000
Nb3Au0.7Pt0.3,13.000
C1.45Y0.9Zn0.1,13.000
Mo6S7Sn1,13.000
Co0.44Mo0.56,13.000
C1Mo1,13.000
Nb0.755Sn0.138Al0.077Ge0.029,13.000
Nb0.692Sn0.077Al0.168Ge0.063,13.000
Zr1Ru1P1,13.000
Zr1N1Cl1,13.000
Y1Ni1.85Cu0.15B2C1,13.000
Mo6S6Br2,13.000
Mo6S6I2,13.000
Nb2.778Ti0.222Al1,13.000
N0.84H2.52Na1K2C60,13.000
Y0.95Gd0.05Ni2B2C1,13.000
Y1.8Zr0.2C2.9,13.000
Nb0.65W0.35C1,13.000
Li0.3Ti1.1S2,13.000
Ca1Li2,13.000
K0.2Sr0.8Fe2As2,13.000
Fe1Se0.5Te0.5,13.000
Fe1.013Se0.3Te0.7,13.000
Ba1Fe2As2,13.000
Fe1.03Te0.7Se0.3,13.000
Li1Fe0.975Co0.025As1,13.000
Ca10Fe9.2Pt3.8As18,13.000
Ca1Fe2As1.925P0.075,13.000
Fe1Te0.5Se0.5,13.000
Na1Fe1As1,13.000
Ca10Pt4.05Fe8.95As18,13.000
Pr0.8Sr0.2Fe0.97Zn0.03As1O1,13.000
Na1Fe0.99Co0.01As1,13.000
Fe0.99Zn0.01Se0.3Te0.7,13.000
Fe1.02Te0.5Se0.4S0.1,13.000
K0.08Zr1N1Cl1,13.000
Fe1Se0.2Te0.8,13.000
Ba0.812K0.188Fe2As2,13.000
Re0.4Mo0.6,13.000
Ca10Pt4.3Fe8.7As18,13.000
Hg0.8Mo0.2Ba2Ca2Cu3O8.4,129.000
Hg0.85Re0.15Ba1.44Sr0.56Ca2Cu3O8,128.700
Hg0.8V0.2Ba2Ca1Cu2O6.3,128.000
Hg0.6Ti0.4Ba2Ca2Cu3O8.4,128.000
Hg0.8Nd0.2Ba2Ca2Cu3O8.3,128.000
Hg1Ba2Ca1Cu2O6.22,127.000
Hg0.8Mo0.2Ba2Ca1Cu2O6.4,127.000
Hg0.8Ti0.2Ba2Ca1Cu2O6.2,127.000
Hg0.8V0.2Ba2Ca2Cu3O8.3,127.000
Hg1Ba2Ca1Cu2O6.21,127.000
Hg1Ba2Ca1Cu2O6.24,126.000
Hg0.8V0.2Ba2Ca1Cu2O6.3,125.000
Hg0.8Pb0.2Ba2Ca2Cu3O8.3,125.000
Tl2Ba2Ca2Cu3O10,125.000
Hg1Ba2Ca1Cu2O6,125.000
Th1Ca3Ba1Cu3O9,124.500
Tl2Ba2Ca4Cu5O14,124.000
Tl0.5Pb0.5Sr1.6Ca2.4Cu3O9,124.000
Hg0.8Ge0.2Ba2Ca1Cu2O6.2,124.000
Tl1Ba2Ca2Cu3O9,123.000
Tl2Ba2Ca2Cu3O10,123.000
Tl1Ba2Ca3Cu4O11,122.100
Tl0.6Pb0.2Bi0.2Sr1.8Ba0.2Ca2Cu3O9,122.000
Hg1Ba2Ca1Cu2O6.19,122.000
Hg1Ba2Ca1Cu2O6.24,122.000
Tl2Ba2Ca2Cu3O10,121.000
Hg1Ba2Ca1Cu2O6.16,121.000
Hg1Ba2Ca1Cu2O6.24,121.000
Tl2Ba2Ca3Cu4O12,120.000
Tl2Ba2Ca5Cu6O16,120.000
Hg0.8V0.2Ba2Ca2Cu3O8.3,120.000
Hg0.6Pb0.4Ba2Ca2Cu3O8.4,120.000
Ba2Ca2Cu3F1.2O6.8,120.000
H1W1O3,120.000
Zr1Ru1P1,12.930
Ru0.8Rh0.2Sr2Gd1Cu2O8,12.900
Li1Ti2O4,12.900
Al0.5Ga0.5V3,12.900
C1.5La0.9Th0.1,12.900
C1.5Ti0.3Y0.7,12.900
Nb0.24Tc0.76,12.900
Nb0.75Au0.175Pt0.075,12.900
Mg0.5Al0.5B2,12.900
Pb1Mo6S8,12.900
Y1.4Ti0.6C3,12.900
Mo0.84V0.16C1,12.900
Sr1Fe1.6Co0.4As2,12.900
Fe1Te0.7Se0.3,12.900
Fe1.03Te0.5Se0.5,12.900
La1Fe1As1F0.14O0.86,12.900
La1Fe1As0.7P0.3F0.14O0.86,12.900
V3Si0.8Sn0.2,12.850
C60K3,12.800
Sm1Ba2Cu3O6.55,12.800
Nb1N1.08O0.27,12.800
Zr1N1Cl0.7,12.800
Nb0.03Tc0.97,12.800
Nb0.06Tc0.94,12.800
Ti0.013V0.987,12.800
V2.7Nb0.3Si1,12.800
Si1V2.7Nb0.3,12.800
Y1Ni1.98Ru0.02B2C1,12.800
Nb0.75Au0.175Pt0.075,12.800
Mo0.84Ti0.16C1,12.800
Mo0.8V0.2C1,12.800
Pr0.9Sr0.1Fe1As1O1,12.800
Ba1Fe1.774Co0.226As2,12.800
Sm1Fe0.875Co0.125As1O1,12.800
Fe1Se0.2Te0.8,12.800
Ca1Fe1.952Rh0.048As2,12.800
La1.882Ba0.118Cu0.99Ni0.01O4,12.700
La1.86Ba0.14Cu1O4,12.700
Y0.5Pr0.5Ba2Cu3O6.95,12.700
Ba0.45K0.55Bi1O3,12.700
Ga0.8In0.2V3,12.700
Nb0.625Sn0.014Al0.263Ge0.098,12.700
Nb0.8W0.2C1,12.700
Pb1Mo6S8,12.700
La1.9Th0.1C1.35,12.700
Y0.9Tb0.1Ni2B2C1,12.700
Nb0.85Mo0.15C1,12.700
Y1Ni1.9Mn0.1B2C1,12.700
Hf1Ru1P1,12.700
Pb1Mo6S7.9Se0.1,12.700
Zr1N1Cl0.7,12.700
Li1Ti2O4,12.700
Mo3Os1,12.700
Ga0.25V0.75,12.700
Mo0.95Hf0.05C1,12.700
Zr0.12N1Cl1,12.700
La1.85Sr0.15Cu0.97Ni0.03O4,12.700
Fe1Se0.492Te0.328,12.700
Fe1.02Te0.85Se0.15,12.700
Fe0.02Te0.85Se0.15,12.700
Ca9.6La0.4Pt3Fe10As18,12.700
La1Fe0.925Co0.075As1O1,12.660
La1.85Sr0.15Cu0.982Zn0.018O4,12.600
Mo6.35Pb1S8,12.600
V2.799Cr0.201Ga1,12.600
Nb3Sn0.5Ge0.5,12.600
Nb3Al0.5Ge0.5,12.600
Al0.5Ge0.5Nb1,12.600
Pb1Mo6S8,12.600
V0.737Ga0.213Al0.05,12.600
V0.75Si0.212Al0.037,12.600
Fe1Se0.45Te0.55,12.600
Li0.16Zr1N1Cl1,12.600
Sr1Fe1.7Pt0.3As2,12.600
Na1Fe0.985Co0.015As1,12.600
Na1Fe0.982Cu0.018As1,12.600
Ca1Fe2As1.9P0.1,12.600
Eu1Fe1.86Rh0.14As2,12.600
Na1Fe1Ni0.006As1,12.600
Y0.85Tb0.15Ni2B2C1,12.540
Ba1.9K0.1Pb0.85Bi0.15O4,12.500
Bi2Sr1.6Eu0.4Cu1O6.301,12.500
Sr2Cu1C0.95B0.05O5,12.500
Bi2Sr2Cu1O6,12.500
Pr1.11Gd0.74Ce0.15Cu1O4,12.500
La1.725Nd0.15Sr0.125Cu1O4,12.500
Ba1Pb0.75Bi0.25O3,12.500
Al1Nb2.1V0.9,12.500
Au0.7Nb3Pt0.3,12.500
Ga1Nb2.4V0.6,12.500
Mo5Pb1S7,12.500
Mo3Os1,12.500
Nb1P1S1,12.500
Nb0.660Sn0.048Al0.213Ge0.079,12.500
B0.03C0.51Mo0.47,12.500
C1Nb0.6W0.4,12.500
Nb0.742Ga0.216Cr0.041,12.500
C60Rb3,12.500
Li0.4Zr1N1Cl1,12.500
Ga0.2V0.8,12.500
Nb0.5W0.5C1,12.500
Fe1.03Se0.25Te0.75,12.500
Fe1.053Se0.3Te0.7,12.500
Y0.9Gd0.1Ni2B2C1,12.500
Fe2As2Ca4Al1.34Ti0.66O6,12.500
Sr0.85Eu0.15Fe1.76Co0.24As2,12.500
La3Ni2B2N2.7,12.500
Fe1Se0.5Te0.5,12.500
Ba1Fe1.974Mo0.026As2,12.500
Ba1Fe1.86Co0.12Mn0.02As2,12.500
La1.885Sr0.115Cu0.993Zn0.007O4,12.450
Ca10Pt3.51Fe9.49As18,12.440
La1.84Ba0.16Cu0.99Zn0.01O4,12.400
Li1Ti2O4,12.400
Mo0.95Hf0.05C0.74,12.400
C1.45Cr0.1Y0.9,12.400
Nb3Sn0.4Sb0.6,12.400
Nb0.8Ga0.18Ni0.02,12.400
Y1.8Cr0.2C2.9,12.400
Mg0.97Mn0.03B2,12.400
Fe1.03Te0.7Se0.3,12.400
Zr1Ru1P1,12.340
V0.653Si0.316Ga0.032,12.330
Y1Ba2Cu3O6.346,12.300
Li1Ti2O4,12.300
Ga0.222V0.778,12.300
Nb1N1.22O0.18,12.300
V2.802Ta0.198Ga1,12.300
La3Ni2B2N3,12.300
Lu1Ni1.95Co0.1B2C1,12.300
Nb2.7Mo0.3Al1,12.300
Pb0.9Yb0.1Mo6Se8,12.300
Y0.9Gd0.1Ni2B2C1,12.300
Pb1Mo6S8,12.300
V0.725Ga0.203Al0.072,12.300
Nb0.85Hf0.15N0.94,12.300
Mo0.6Re0.4,12.300
Ga0.173V0.827,12.300
La1.901Ba0.099Cu1O4,12.300
Fe1Se0.5Te0.5,12.300
Sr0.28Eu0.72Fe1.76Co0.24As2,12.300
Ba1Fe1.946Pd0.054As2,12.300
C60Rb3,12.250
Na1Fe0.986Cu0.014As1,12.250
Nb0.51Mo0.49C1,12.220
Sm0.9Pr0.1Ba2Cu3O6.55,12.200
K0.8La0.2Bi1O3,12.200
K0.75La0.25Bi1O3,12.200
Ga0.281V0.719,12.200
Mo1B0.01C0.82,12.200
Nb0.5Sn0.25Ta0.125V0.125,12.200
Nb2Ta0.5V0.5Sn1,12.200
C1Mo2,12.200
Nb2Sn1Ta0.5V0.5,12.200
Nb0.747Ga0.224Co0.029,12.200
Mg0.6Al0.4B2,12.200
Zr1Ru1Si1,12.200
Pb0.8Yb0.2Mo6Se8,12.200
V0.741Ga0.196Al0.063,12.200
Tl1Mo6Se7.5,12.200
Ga0.222V0.778,12.200
Lu1,12.200
K0.7Sr0.3Fe2As2,12.200
Ba1Fe1.925Ni0.075As2,12.200
Li0.13Zr1N1Cl1,12.200
Pr1Fe0.9Co0.1As0.85P0.15O1,12.200
Ca0.85Eu0.15Fe1As2,12.200
La1Fe0.973Zn0.027As1F0.28O0.68,12.200
Fe1Te0.65Se0.3S0.05,12.200
Li1Fe0.993V0.007As1,12.200
Mo1S2,12.200
La1Fe2As2,12.200
Li1Ti1O4,12.150
V0.653Si0.316Ge0.031,12.150
Cr0.051Ga0.196V0.753,12.140
Gd0.51Pr1.34Ce0.15Cu1O1,12.100
Li1.04Ti1.96O4,12.100
Li1Ti2O4,12.100
Ga0.296V0.704,12.100
C0.69Mo1,12.100
Y1Ni1.5Pd0.5B2C1,12.100
Y1Ni1.3Pd0.7B2C1,12.100
Y1Ni1.94Co0.06B2C1,12.100
Nb0.95Mo0.05C1,12.100
Nb0.3Mo0.7C1,12.100
N0.9H2.7Na1Rb2C60,12.100
Y1Ni1.6Pt0.4B2C1,12.100
V0.767Ga0.086Al0.147,12.100
V0.767Ga0.214Al0.022,12.100
Ga0.235V0.765,12.100
N0.89Nb1,12.100
Sr1Fe1.76Zn0.04Co0.2As2,12.100
Re0.35Mo0.65,12.050
C0.148N0.638Ta1,12.010
Sr0.2La1.8Cu0.99V0.01O4,12.000
La1.88Ba0.12Cu1O4,12.000
Bi2Sr1.9La0.1Cu1O6.2,12.000
Y1Sr2Cu2.7Ti0.3O7.144,12.000
La1.35Sm0.45Sr0.2Cu1O4,12.000
Tl2Ba2Cu1O6,12.000
Sr0.7Ba1.3Y1Cu2.8Al0.2O7.03,12.000
Ba1Pb0.75Bi0.25O3,12.000
Cu2Ga0.25Sr2Y1.3Ce0.7O8.6,12.000
Y0.5Pr0.5Ba2Cu3O6.96,12.000
Hg0.75Mo0.25Ba2Cu1O4.59,12.000
La1.45Nd0.4Sr0.15Cu1O4,12.000
Sm1.711Y0.139Ce0.15Cu1O4,12.000
La1.75Nd0.1Ba0.15Cu1O4,12.000
La1.64Nd0.2Ba0.16Cu1O4,12.000
Sr0.4K0.6Bi1O3,12.000
La1.73Sr0.27Cu1O4,12.000
Nd1.85Ce0.15Cu0.995Ni0.005O4,12.000
Nd1.85Ce0.15Cu0.975Zn0.025O4,12.000
Y1Ba2Cu3.9Zn0.1O8,12.000
La1.85Sr0.15Cu1O3.987,12.000
Nd0.74Gd1.11Ce0.15Cu1O4,12.000
Ru1Sr2Sm1Cu2O8,12.000
Li1.05Ti1.95O4,12.000
La1.931Sr0.069Cu1O4,12.000
Mo1N1,12.000
C1,12.000
Mo0.95Hf0.05C0.73,12.000
C1Nb1,12.000
Mo0.3Tc0.7,12.000
Nb1Ru3,12.000
N1Ta1,12.000
Li2Na1N1C60,12.000
C0.985Nb1,12.000
N0.86H2.58Na1Rb2C60,12.000
Na2Cs1C60,12.000
Li2Cs1C60,12.000
Zr1Ru1Si1,12.000
Mg0.4Al0.6B2,12.000
Y0.85Pr0.15Ni2B2C1,12.000
Y0.75Dy0.25Ni2B2C1,12.000
S1,12.000
N0.72H2.16Na1K3C60,12.000
Mg0.6Al0.4B2,12.000
V0.743Ga0.181Al0.076,12.000
Y1.8Th0.2C2.7,12.000
Pb1Mo6.35S8,12.000
Mo0.6Re0.4,12.000
Nb0.75Mo0.25C1,12.000
Mo0.8W0.2C1,12.000
Mo0.8Ti0.2C1,12.000
Ca1Fe2As2,12.000
B0.015C0.985,12.000
Li1Fe1As1,12.000
Na0.5Fe1As1,12.000
Fe1Se0.25Te0.75,12.000
Sr2Sc1Fe1P1O3,12.000
Sm1Fe1As1F0.1O0.9,12.000
La1Fe0.95Rh0.05As1O1,12.000
Ba0.7K0.3Fe1.66Co0.34As2,12.000
Ba0.7K0.3Fe1.72Co0.28As2,12.000
Ca1Fe1.73Co0.27As2,12.000
Sr0.81Eu0.19Fe1.76Co0.24As2,12.000
Pr0.8Sr0.2Fe0.94Zn0.06As1O1,12.000
Fe0.98Zn0.02Se0.3Te0.7,12.000
C0.681Mo1,12.000
Ba0.85K0.15Fe2As2,12.000
Ba0.816K0.184Fe2As2,12.000
Mo1S2,12.000
Li1Ti2O4,12.000
Tl2Ca2Ba2Cu3O10,119.950
Hg0.8V0.2Ba2Ca1Cu2O6.3,119.000
B0.6C0.4Sr0.5Ba1.5Ca2Cu3O9,119.000
Tl2Ba2Ca2Cu3O10,118.500
Hg1Ba2Ca2Cu3O8.28,118.500
Tl2Ca2Ba2Cu3O10,118.000
Tl1.6Ba2Ca2.4Cu3O9.67,118.000
Tl1.4Ba2Ca2.6Cu3O9.53,118.000
Tl1.4Ba2Ca3Cu4O11.4,118.000
Tl2Ba2Ca2Cu3O10,118.000
Hg0.8W0.2Ba2Ca1Cu2O6.4,118.000
Hg0.9W0.1Ba2Ca1Cu2O6.2,118.000
Tl1Ba2Ca2Cu3O9,118.000
Hg0.9Pb0.1Ba2Ca2Cu3O8.25,118.000
Bi1.7Pb0.3Sr2Ca2Cu3F0.8O9.2,117.600
C0.3Ba2Ca4Cu5.7O11.18,117.500
Cu1Cr0.95Fe0.05O2,117.500
Tl0.5Pb0.5Sr1.6Ca2.4Cu3O9,117.000
Cu4C0.5Ba2Ca3O11,117.000
Tl0.25Li0.25Ba2Ca2Cu3.5O7.955,117.000
C0.3Ba2Ca4Cu5.7O10.77,116.700
C0.3Ba2Ca4Cu5.7O10.69,116.300
Tl1.7Ba2Ca2.3Cu3O9.82,116.000
Tl0.8Bi0.2Ba2Ca2Cu3O9,116.000
Ba2Ca3Cu4O10.35,116.000
C0.3Ba2Ca4Cu5.7O10.66,115.700
Bi0.8Nd0.1Tb0.1Pb1Sr2Ca2Cu3O10,115.500
C0.3Ba2Ca4Cu5.7O10.57,115.100
Tl2Ba2Ca2Cu3O10,115.000
Sr0.044Ca0.044Cu0.070C0.036B0.062O0.744,115.000
Tl0.5Pb0.5Sr2Ca2Cu3O9,115.000
Hg0.8V0.2Ba2Ca1Cu2O6.3,115.000
Hg0.8Cr0.2Ba2Ca1Cu2O6.1,115.000
Pb0.5Sr2Ca1Cu2.5O6.8,115.000
Hg1Ba2Ca3Cu4O1,115.000
Hg1Ba2Ca3Cu4O2,115.000
Bi0.8Nd0.1Tb0.1Pb1Sr2Ca2Cu3O10,115.000
Tl0.5Ba2Ca0.3Be1.7Cu3.5O7.685,115.000
Tl0.5Ba2Ca1.5Be1.5Cu4.5O9.887,115.000
H1Br3C61,115.000
C0.3Ba2Ca4Cu5.7O10.45,114.300
Tl2Ba2Ca1Cu2O8,114.100
Tl1Ba1Ca1Cu2O5.5,114.000
Tl2Ba2Ca2Cu3O9.83,114.000
Tl1Ba2Ca3Cu4O11,114.000
Tl1Ba2Ca2Cu3O9,114.000
Bi2Sr2Ca2Cu3O1,114.000
Hg0.8Mn0.2Ba2Ca1Cu2O6.2,114.000
C0.3Ba2Ca4Cu5.7O10.34,113.500
Tl2Ba2Ca1Cu2O8,113.100
Tl0.5Pb0.5Sr1.6Ca2.4Cu3O9,113.000
C1Ba3Ca3Cu5O13,113.000
Bi1.7Pb0.3Sr2Ca2Cu3F0.5O9.5,113.000
Tl1.62Ba2Ca2.3Cu3O9.92,113.000
Tl0.25Li0.25Ba2Ca2Cu2.5Si1O7.853,113.000
Tl2Ba2Ca1Cu2O8,112.100
Tl2Ba2Ca1Cu2O7.833,112.000
Tl2Ba2Ca2Cu3O9.964,112.000
Tl1.8Ba2Ca2.2Cu3O9.92,112.000
Tl0.5Pb0.5Sr2Ca2Cu3O9,112.000
Bi1.8V0.2Sr2Ca2Cu3O2,112.000
Hg0.7Bi0.3Sr2Ca2Cu3O8.15,112.000
Bi2Sr2Ca2Cu3O1,111.000
Tl2Ba2Ca2Cu3O9.877,111.000
Sr2Ca2Cu3F3.2O6.2,111.000
Tl2Ba2Ca1Cu2O8,111.000
Bi1.7Pb0.3Sr2Ca2Cu3F0.2O9.8,111.000
Bi0.9Nd0.05Tb0.05Pb1Sr2Ca2Cu3O10,111.000
Tl0.25Li0.25Ba2Ca2Cu3Si0.5O7.835,111.000
Tl2Ba2Ca1Cu2O7.876,110.000
Tl2Ba2Ca2Cu3O9.841,110.000
Bi1Sr1Ca1Cu1O1,110.000
Ca0.285Sr0.665Cu1O2,110.000
C1Ba3Ca3Cu5O13,110.000
Hg0.8Cr0.2Ba2Ca1Cu2O6.1,110.000
Hg0.8Cr0.2Ba2Ca2Cu3O8.1,110.000
B1Sr2Ca3Cu4O11,110.000
Hg0.5Pb0.5Ba2Ca4Cu5O12.5,110.000
Hg1Ba2Ca2Cu3O8.22,110.000
Tl1Ba2Ca2Cu3O9,110.000
Ca0.27Sr0.63Cu1O2,110.000
Sr0.7Ca0.3Cu1O2,110.000
Hg1Tl1Ba2Ca3Cu4O12,110.000
Hg1Ba2Ca1Cu2O6.27,110.000
Tl0.5Ba2Ca1Be2Cu4.5O9.948,110.000
Tl2Ba2Ca1Cu1.98Fe0.02F0.1O7.95,110.000
Bi2Sr2Ca2Cu3O10,110.000
La1.9Sr0.1Cu0.99Zn0.01O4,11.970
Lu0.75Th0.25Rh4B4,11.930
Pr1.85Ce0.15Cu0.995Ni0.005O4.065,11.920
Sm0.7Pr0.3Ba2Cu3O6.95,11.900
La1.89Ba0.11Cu1O4,11.900
Sr2Y1Ru0.95Cu0.05O6,11.900
Li0.98Mg0.02Ti2O4,11.900
Nb1N1.25O0.25,11.900
V2.7Mn0.3Si1,11.900
V2.793Ni0.207Ga1,11.900
Nb3Rh0.02Au0.98,11.900
V3Ga0.8Si0.2,11.900
Zr1Ru1As1,11.900
Li1Ti2O4,11.900
Mo0.9Hf0.1C1,11.900
Fe1.03Te0.9Se0.1,11.900
Nd1Fe0.97Mn0.03As1F0.11O0.89,11.900
Y0.9Ce0.1Ni2B2C1,11.900
Fe0.03Te0.9Se0.1,11.900
Ce1Fe1As1F0.05O0.95,11.900
Ca1Fe1.958Rh0.042As2,11.900
La1Fe1As1F0.14O0.86,11.900
Fe1Te0.7Se0.3,11.900
Hf1Ru1P1,11.890
La1Fe0.925Ir0.075As1O1,11.850
Ca10Pt3.474Fe9.526As18,11.850
C0.017N0.632Ta1,11.840
C0.97Ta1,11.840
Ba0.5K0.5Fe1.8Cu0.2As2,11.830
Th1Co0.6Ni0.4C2,11.830
Li1.08Ti1.92O4,11.800
Nb0.4Ta0.6C1,11.800
Mo1B0.03C0.82,11.800
Cu1Mo3S4,11.800
Mo0.66Re0.34,11.800
O0.105Rh0.285Zr0.61,11.800
Zr0.61Rh0.285O0.105,11.800
Y1Ni1Pd1B2C1,11.800
Y1Ni0.8Pd1.2B2C1,11.800
Lu0.8Dy0.2Ni2B2C1,11.800
C0.98Nb1,11.800
Nb0.8Ga0.17Ni0.03,11.800
N0.75H2.25Na1K2C60,11.800
Sn1Mo6S8,11.800
Y1Ni1.82Pd0.18B2C1,11.800
V0.746Ga0.169Al0.085,11.800
V0.75Si0.2Al0.05,11.800
Ta0.05Mo0.95C1,11.800
Ba0.8Na0.2Fe2As2,11.800
Fe0.97Zn0.03Se0.3Te0.7,11.800
Sr1Ca13Cu24O41,11.800
Ba2Ti2Fe1.94Cr0.06As4O1,11.800
Lu0.772Dy0.228Ni2B2C1,11.770
Lu1Rh4B4,11.760
Li1.035Ti1.965O4,11.750
Sm1Fe0.85Co0.15As1O1,11.750
La3Ni2B2N3,11.730
Nd0.75Pr0.25Ba2Cu3O6.96,11.700
Na2Cs1C60,11.700
Hg1.4Tl0.6Ba2Y1Cu2O7.92,11.700
La1.937Sr0.063Cu1O4,11.700
Ba1Pb0.75Bi0.25O3,11.700
Li1Ti2O4,11.700
La1.85Sr0.11Ho0.04Cu1O4,11.700
V2.799Mo0.201Ga1,11.700
Nb3Al0.55Ge0.45,11.700
Mo0.3Si1,11.700
Sn1Mo6S8,11.700
Lu1Rh4B4,11.700
Li0.6Zr1N1Cl1,11.700
V0.747Ga0.131Al0.122,11.700
V0.77Si0.21Al0.02,11.700
V0.75Ge0.15Al0.1,11.700
Th1.4Lu0.3C3,11.700
Pb1Mo6S6O2,11.700
Li1.07Ti1.93O4,11.700
Mo0.9W0.1C1,11.700
Ce1Fe1As1F0.05O0.95,11.700
Sr1Fe1.85Pt0.15As2,11.700
Ba0.2K0.8Fe2As2,11.700
Mo3Os1,11.690
La1Fe1As0.15P0.85O1,11.670
Ru0.9Nb0.1Sr2Gd1Cu2O8,11.650
Fe1.02Te0.5Se0.3S0.2,11.640
C6Ca1,11.620
La1.85Sr0.15Cu0.988Fe0.012O4,11.600
Ba1Pb0.75Bi0.25O3,11.600
Y2C2Br0.5I1.5,11.600
Mo0.5Re0.5,11.600
Y1Ni1.8Cu0.2B2C1,11.600
Ho0.5Y0.5Ni2B2C1,11.600
La1Mo6Se8,11.600
Nb0.743Ga0.210Fe0.046,11.600
Na2Cs1C60,11.600
Th1.2Lu0.8C3,11.600
Nb0.9W0.1C1,11.600
C3Y2,11.600
Li0.18Zr1N1Cl1,11.600
C6Ca1,11.600
Ca1Fe2As2,11.600
Li0.28Zr1N1Cl1,11.600
Fe1.18Te0.6Se0.4,11.600
Ba1Fe1.924Co0.076As2,11.600
Ba1Fe1.906Co0.042Cu0.052As2,11.600
Gd1Fe0.7Ir0.3As1O1,11.600
La1.85Sr0.15Cu0.971Ni0.029O4,11.600
Sm1Fe0.925Co0.075As1O1,11.600
Ca9.5Yb0.5Pt3Fe10As18,11.600
Na1Fe0.978Cu0.022As1,11.600
C6Ca1,11.570
C0.98Nb1,11.560
Sr0.4K0.6Bi1O3,11.550
La1.9Sr0.1Cu0.99Ni0.01O4,11.500
Sr0.4K0.6Bi1O3,11.500
Y1Ba2Cu3.9Zn0.1O8,11.500
Mo1B0.05C0.82,11.500
C6Ca1,11.500
Au1Nb3,11.500
C1.45V0.1Y0.9,11.500
C1.45Y1,11.500
C3Y2,11.500
V2.883W0.117Ga1,11.500
V3Ga0.937In0.063,11.500
Y1Ni1.94Co0.06B2C1,11.500
Y1Ni1.8Cu0.2B2C1,11.500
Nb2.73Ti0.27Al1,11.500
Nb0.8Ga0.17Cr0.03,11.500
Mo0.62Re0.38,11.500
Pb1Mo6S8,11.500
V0.767Ga0.18Al0.053,11.500
Y1.8V0.2C2.9,11.500
Li1Ti2O4,11.500
Mo0.9Zr0.1C1,11.500
Mo0.84Hf0.16C1,11.500
Lu1Rh4B4,11.500
Fe1Te0.925Se0.075,11.500
Pr0.8Sr0.2Fe0.8Co0.2As1O1,11.500
K0.26Zr1N1Cl1,11.500
La1Fe0.999Mn0.001As1F0.11O0.89,11.500
Na1Fe0.981Cu0.019As1,11.500
Nd1Fe1As1F0.3O0.7,11.500
C6Ca1,11.480
C6Ca1,11.460
Zr1Ru1P1,11.450
Lu1Rh4B4,11.450
Y0.8Tb0.2Ni2B2C1,11.430
La1Fe1As0.2P0.8O1,11.420
Li2.6Ti1.7O4,11.400
Li1Ti2O4,11.400
C6Ca1,11.400
Rh0.25Zr0.75,11.400
Nb2.7Mo0.3Al1,11.400
V0.741Ga0.152Al0.107,11.400
V0.75Ge0.188Al0.062,11.400
Mo0.8Hf0.2C1,11.400
La1Si5,11.400
Ca1Fe1.956Rh0.044As2,11.400
Rh1Zr2,11.360
Y1Rh4B4,11.340
Tc0.9V0.1,11.320
Ba0.6K0.4Bi0.7Pb0.3O3,11.300
Ba0.9K0.1Bi0.4Pb0.6O3,11.300
Y1Ba2Cu2.6Co0.4O7.03,11.300
Y1Ba2Cu3O6.38,11.300
Sr0.4K0.6Bi1O3,11.300
Sm0.85Gd1Ce0.15Cu1O3.97,11.300
C6Ca1,11.300
Nb1N1.34O0.27,11.300
C1.35Si0.1Y0.9,11.300
V2.7Cr0.3Si1,11.300
Ge0.5Nb3Sn0.5,11.300
N0.7Nb1,11.300
Si1V2.7Cr0.3,11.300
Cu1.6Mo6S8,11.300
Y1Rh4B4,11.300
La1Mo6Se8,11.300
Y1Ni2B2C1,11.300
V0.75Ge0.13Al0.12,11.300
Nb3Sn0.5Ge0.5,11.300
Y1.8Si0.2C2.7,11.300
Mo0.6W0.4C1,11.300
Mo0.4W0.6C1,11.300
Fe0.98Ni0.02Se0.82,11.300
Rh1Zr2,11.300
Fe1Te0.69Se0.25S0.06,11.300
Ba1Fe1.935Ni0.065As2,11.300
Na1Fe0.975Cu0.025As1,11.300
Mo0.55Pt0.05Re0.425,11.250
Rh0.33Zr0.67,11.250
Tc0.8V0.2,11.240
Ba1Pb0.7Bi0.3O3,11.230
Au1Nb3,11.230
Au1Nb3,11.220
Nd1.85Ce0.15Cu0.996Co0.004O4,11.200
Nd1.85Ce0.15Cu0.995Ni0.005O4,11.200
Gd0.6Pr0.4Ba2Cu3O6.95,11.200
Li2.6Ti1.9O4,11.200
La1.79Sr0.21Cu0.98Ru0.02O4,11.200
Au0.25Nb0.75,11.200
B5Mo1.69Zr0.31,11.200
C0.4Mo0.6,11.200
C1.35Ru0.1Y0.9,11.200
Rh0.33Zr0.66,11.200
V3Si0.76Al0.24,11.200
V3Ga0.994Cd0.006,11.200
Rh1Zr2,11.200
C1Nb1,11.200
Nb0.748Ga0.237Mn0.016,11.200
Nb0.724Ga0.260Mn0.016,11.200
Y2I1.6Br0.4C2,11.200
Y0.9Gd0.1Ni2B2C1,11.200
V0.75Ge0.025Al0.225,11.200
Y1.8Ru0.2C2.7,11.200
C3La2,11.200
Y0.9Pr0.1Ni2B2C1,11.200
Fe1Cr0.01Se1,11.200
Ca0.74La26Fe0.975Co0.025As2,11.200
Ba1Fe2S3,11.200
Rb1Eu1Fe3.72Ni0.28As4,11.200
Sr0.4K0.6Bi1O3,11.180
V3Ge0.7Al0.3,11.170
La0.9Sr0.1Fe1As0.8P0.4O1,11.140
La1.8Sr0.2Cu0.97Ni0.03O4,11.100
Y0.8Pr0.2Ba2Cu3O6.5,11.100
La1.8Sr0.2Cu0.973Zn0.027O4,11.100
Ba0.6K0.4Bi0.933Pr0.067O3,11.100
C3La2,11.100
C6Ca1,11.100
C1Nb1,11.100
Mo0.52Re0.48,11.100
Pb1Mo6S7,11.100
Rh0.14Zr0.86,11.100
Tm1Ni2B2C1,11.100
Zr2Rh1H0.08,11.100
Au1Nb3,11.100
Mg0.31Al0.69B2,11.100
Y2I1.5Br0.5C2,11.100
V0.75Si0.175Al0.075,11.100
Ta0.5Nb0.5C1,11.100
Mn0.2Fe0.8Se0.85,11.100
Ba1Fe1.776Co0.224As2,11.100
Ba0.5K0.5Fe1.8Ni0.2As2,11.100
Sm1Fe0.7Ru0.3As1F0.15O0.85,11.100
Na1Fe1As1,11.100
La1Fe1As1F0.2O0.8,11.100
Na1Fe0.976Cu0.024As1,11.100
La1Fe1As0.8P0.2F0.14O0.86,11.100
Au1Nb3,11.080
Tc0.75V0.25,11.070
Zr1Ru1As1,11.050
V3Ge0.8Al0.2,11.020
La1Fe0.9Co0.1As1O1,11.020
La1.91Sr0.09Cu1O4,11.000
Eu0.65La1.2Ce0.15Cu1O4,11.000
Bi1Pb1Sr0.12Pr0.12Cu1O6,11.000
La1.86Ba0.14Cu0.99Ni0.01O4,11.000
Ba1.7K0.3Pb0.95Bi0.05O4,11.000
Ba1.7K0.3Pb0.9Bi0.1O4,11.000
Gd1.4Ce0.6Sr2Cu2Ti1O10,11.000
Pr1.573Y0.278Ce0.15Cu1O4,11.000
La1.6Nd0.2Ba0.2Cu1O4,11.000
La1.52Nd0.4Ba0.08Cu1O4,11.000
Sr0.4K0.6Bi1O3,11.000
Nd1.85Ce0.15Cu0.97Zn0.03O4,11.000
La1.685Nd0.2Sr0.115Cu1O4,11.000
La1.5Ba1.4Ca0.1Cu3O6.912,11.000
Rb1Bi1O3,11.000
Rb0.9Bi1.1O3,11.000
Rb0.7Bi1.3O3,11.000
Rb0.6Bi1.4O3,11.000
Ba0.47K0.53Bi1O3,11.000
Ru1Sr2Eu1Cu2O8,11.000
La1.48Nd0.4Sr0.12Cu1O4,11.000
Ru0.7Sn0.3Sr2Gd1Cu2O8,11.000
Ca1.8Na0.2Cu1Br2O2,11.000
La1.8Sr0.2Cu0.99Zn0.01O4,11.000
Li1Ti2O4,11.000
C3La2,11.000
Cu1Mo4S5,11.000
Mo6.35Pb0.9S8Sn0.12,11.000
Nb0.75Zr0.25,11.000
Rh1Zr3,11.000
Rh0.12Zr0.88,11.000
Nb3Pt1,11.000
Nb3Rh0.05Au0.95,11.000
C1Ta1,11.000
C1.35La1,11.000
Er1Ni2B2C1,11.000
Tm1Ni2B2C1,11.000
Y0.8Tb0.2Ni2B2C1,11.000
La0.94Mo6Se8,11.000
La1Pt1.5Au0.6B2.4C1.2,11.000
Au0.24Nb0.76,11.000
Au0.25Nb0.75,11.000
Nb0.745Ga0.211Co0.044,11.000
N0.87H2.61Na1K2C60,11.000
Na2Cs1C60,11.000
Zr1Ru4P2,11.000
Y1Ni2B2C1,11.000
B1,11.000
Li1.3Zr1N1Cl1,11.000
Na1.38Zr1N1Cl1,11.000
Pb0.7Eu0.3Mo6.35S8,11.000
Nb0.2W0.8C1,11.000
Mo0.84Zr0.16C1,11.000
La1.5Nd0.4Sr0.1Cu1O4,11.000
Li0.9Mg0.1,11.000
La1Fe0.95Co0.05As1O1,11.000
Ba1Pb0.75Bi0.25O3,11.000
Ba1Fe1.92Co0.08As2,11.000
Fe1.049Se0.2Te0.8,11.000
Fe1.013Te0.68Se0.32,11.000
Fe1.04Te0.95Se0.05,11.000
Mn0.1Fe0.9Se0.85,11.000
Ba0.86K0.14Fe1.68Co0.32As2,11.000
Ba0.82K0.18Fe1.654Co0.346As2,11.000
Sr1Fe1.732Co0.268As2,11.000
Fe2As2Ba4Sc3O7.5,11.000
Ba1Fe2Se3,11.000
Ba1Fe1.9Se3,11.000
Ca10Pt3.97Fe9.03As18,11.000
Fe1Te0.6Se0.4,11.000
Ba1Fe1.81Zn0.08Co0.11As2,11.000
K0.8Fe1.993Cr0.007Se2,11.000
K0.8Fe1.988Co0.012Se2,11.000
Ca0.81Nd0.19Fe1As2,11.000
Li0.8Fe1.2Se0.23S0.77H1O1,11.000
Sm1Fe1As0.55P0.45H0.16O0.84,11.000
Fe1Se0.1Te0.9,11.000
Ca1Fe2As1.94P0.06,11.000
La0.8Y0.2Fe0.98Mn0.02As1F0.11O0.89,11.000
Bi1.6Pb0.3Sb0.1Sr2Ca2Cu3O10,109.000
Tl2Ba2Ca1Cu2O8,109.000
Tl2Ba2Ca3Cu4O12,109.000
Sr2Ca2Cu3O5.5,109.000
Bi2Sr2Ca2Cu3O10,109.000
Bi1.8Pb0.3Sr2Ca2Cu3O10,109.000
Tl2Ba2Ca1Cu1.98Fe0.02F0.2O7.9,109.000
Tl2Ba2Ca1Cu2O8,108.700
Bi2Sr2Ca2Cu3O10.28,108.700
Bi1.65Pb0.35Sr2Ca2Cu3O10,108.600
Bi1.4Pb0.6Sr2Ca2Cu3O7,108.500
Tl2Ba2Ca1Cu2O7,108.000
Tl1Ba2Ca2Cu3O9,108.000
Hg0.7Bi0.3Sr2Ca2Cu3O8.15,108.000
Bi1.8Pb0.3Sr2Ca2Cu3O10,108.000
Bi1.7Pb0.3Sr2Ca2Cu3O10,108.000
Bi1.6Pb0.4Sr2Ca2Cu3O10,108.000
Ba2Ca1Cu2F1.6O4.4,108.000
Bi0.6Nd0.2Tb0.2Pb1Sr2Ca2Cu3O10,107.500
Tl2Ba2Ca1Cu2O8,107.200
Tl2Ba2Ca1Cu2O7.958,107.000
Tl2Ba2Ca1Cu2O7.946,107.000
Bi1.8Pb0.4Sr1.85Ca2.05Cu3O10.26,107.000
Ga1Sr2Ca3Cu4O11,107.000
Ga1Sr2Ca3Cu4O11.1,107.000
Hg0.7Bi0.3Sr2Ca2Cu3O8.35,107.000
Hg0.5Bi0.5Sr2Ca2Cu3O8.35,107.000
Hg1Ba2Ca2Cu3O8.22,107.000
Bi1.8Pb0.3Sr2Ca2Cu3O10,107.000
V0.5Sr2.7Ca2.3Cu4.5O11.6,107.000
Tl2Ba2Ca1Cu2O8,106.700
Bi2Sr2Ca2Cu3O10,106.500
Bi1.7Pb0.3Sr2Ca2Cu3O10,106.500
Ba2Ca3Cu5O1,106.000
Hg0.75Mo0.05Sr2Ca2Cu3O1,106.000