formula,Tc
Bi1.5Pb0.5Sr1.5La0.5Cu1O6.074,4.1
Pb2Cu2La1.1O7.42,4.1
La1.83Sr0.17Cu0.98Mn0.02O4,4.1
Nd1.85Ce0.15Cu1O4.034,4.1
Nb0.76Sn0.74,4.1
Nb3Al0.967Se0.033,4.1
Nb3Al0.8In0.2,4.1
Nb3Al0.9Zn0.1,4.1
Nb3Sn0.95Ge0.05,4.1
Nb3Sn0.9In0.1,4.1
Nb3Ga0.67Al0.33,4.1
Nb3Al0.8In0.2,4.095
Nb3Sn0.95Ge0.05,4.09
Nb3Sn0.9In0.1,4.09
Nb3Ga0.65Al0.35,4.09
Nb3Sn1,4.08
Nb2.85Zr0.15Sn1,4.08
Nb2.7Zr0.3Sn1,4.08
Sm0.716La1.084Sr0.2Cu1O4,4.08
Sr1Fe1.75Co0.25As2,4.08
Ce1Fe1As0.7P0.3F0.05O0.95,4.07
Rb1Eu1Fe3.76Ni0.24As4,4.07
As0.15Bi0.15Nb3Sn0.7,4.07
Nb3Sn1,4.07
Al0.9Nb3Sb0.1,4.07
Nb3Ga0.2Bi0.2Sn0.6,4.07
Ru0.6Sn0.4Sr2Gd1Cu2O8,4.07
As0.15Nb3Pb0.15Sn0.7,4.07
Bi0.15Ga0.15Nb3Sn0.7,4.07
As0.15Ga0.15Nb3Sn0.7,4.06
Bi0.15In0.15Nb3Sn0.7,4.06
Pr1.85Ce0.15Cu0.98Zn0.02O4.065,4.06
Ba0.6K0.4Bi1O3,4.06
Nd1.25La0.6Th0.15Cu1O4,4.06
C60K3,4.06
Bi2Sr2Ca0.5Y0.5Cu2O8.36,4.05
Y1Sr2Cu2.8Ge0.2O1,4.05
C60K3,4.05
Bi2Sr1.8La0.2Cu1O6.3,4.05
Y0.9Ca0.1Ba2Cu2.55Co0.45O7.02,4.05
Bi1.95Sr1.45Nd0.6Cu1O4,4.05
Ca1.9K0.1Cu1Cl2O2,4.05
Y0.4Pr0.6Ba1Sr1Cu3O6.92,4.05
Pr1.74Ce0.15Sr0.11Cu1O3.96,4.05
Pr1.85Ce0.15Cu1O3.98,4.05
Ba0.54K0.46Bi1O3,4.04
La1.75Nd0.1Ca0.064Ba0.086Cu1O4,4.03
Al1Sr2Ho0.5Ca0.5Cu2O7.05,4.03
Sr0.81Nd0.19Cu1O2,4.03
Nd1.758Y0.092Ce0.15Cu1O4,4.03
La1.9Er0.1Ba2Ca0.2Cu4.2O9.85,4.02
Nd1.758Y0.092Ce0.15Cu1O4,4.02
La1.925Sr0.075Cu1O4,4.02
La1.03Pr0.85Sr0.12Cu1O4,4.02
Nd1.85Ce0.15Cu0.995Zn0.005O4,4.02
Pr1.85Ce0.15Cu1O3.98,4.02
La1.77Sr0.23Cu0.99Ni0.01O4,4.02
La1.78Sr0.22Cu0.993Zn0.007O4,4.02
La1.77Sr0.23Cu0.995Zn0.005O4,4.017
La1.83Sr0.17Cu0.98Co0.02O4,4.01
Nd2Cu1F0.5O4,4.01
Gd1Ba1.5Sr0.5Cu3O6.63,4
La1.75Sr0.25Cu1O4,4
Y1Ba2Cu2.95Zn0.05O6.47,4
Nd1.48Gd0.37Ce0.15Cu1O4,4
La1.9Sr0.1Cu1O4,4
Mo1Sr2Sm1.5Ce1Cu2O10,4
Ca1.75Na0.25Cu1Br2O2,4
Ca1.65Na0.35Cu1Br2O2,4
Nb3Sn1,4
Nb3Sn0.94Al0.06,4
Nb3Sn0.96Al0.04,4
Nb3Sn0.8Ge0.2,4
Nb0.747Al0.239Si0.014,4
Nb2.985Hf0.015Al1,4
Nb2.97W0.03Al1,4
Nb3Al0.952Se0.048,4
C60K3,4
C60Cs3,4
Mg0.88Ir0.12B2,4
Mg0.7Al0.3B2,4
C3Y2,4
Nb3Sn0.9Ge0.1,4
Nb1Sn3,4
Nb2.7Ta0.3Sn1,4
Al0.05Nb3Sn0.95,4
Nb3Si1,4
La1.59Na0.41Cu1O4,4
La1Fe1As1F0.06O0.94,4
Li1Fe1As1,4
Pu1Co1Ga5,4
La1Fe1As1F0.14O0.86,4
La0.77Sm0.1Sr0.13Fe1As1O1,4
Sm1Fe0.94Ir0.06As1O1,4
Ba0.694K0.306Fe1.826Co0.174As2,4
Na0.9Fe1As1,4
Nb0.76Fe1.61Se0.96S1.04,4
Sr0.8Eu0.2Fe1.78Co0.22As2,4
Eu0.5K0.5Fe1.9Ni0.1As2,4
Ba0.79K0.21Fe2As2,4
Ba0.85K0.15Fe2As2,4
Ba1Fe1.857Co0.13Mn0.013As2,4
Ba0.698Na0.302Fe2As2,4
Ba1Fe1.915Ni0.085As2,4
As0.15In0.15Nb3Sn0.7,4
As0.15Nb3Sn0.7Tl0.15,4
As0.15Nb3Sn0.85,4
Al0.215Nb0.785,4
Nb3Ge0.1Sn0.9,4
Nb0.5Sn0.5,4
La1.85Sr0.15Cu0.988Al0.012O4,4
La1.8Ba0.2Cu1O4,4
Nb3Sn0.98Al0.02,4
Nb3Sn0.92Al0.08,4
Nb1C0.28N0.78,4
Al1Nb3,4
Nb0.75Al0.175Ge0.075,4
Nb0.75Al0.225Ge0.025,4
Nb3.05Al0.713Ge0.19,4
Nb1C0.5N0.5,4
Nb2.85Ti0.15Sn1,4
Nb2.55Zr0.45Sn1,4
Nd1.85Ce0.15Cu0.91Mn0.09O4,4
La1.82Sr0.18Cu0.98Zn0.02O4,4
Na1Fe0.99Co0.01As1,4
Nb0.76Al0.18Ge0.06,4
Ba1Fe1.91Ni0.09As2,4
Nb3Ge0.2Pb0.2Sn0.6,4
Ge0.15Nb3Pb0.15Sn0.7,4
Al0.95Nb3Sb0.5,4
La1.7Sr0.3Cu1O4,4
Y1Ba2Cu2.95Fe0.05O6.55,4
Gd0.11Sm1.74Ce0.15Cu1O4,4
La1.89Ba0.11Cu1O4,4
Y1Ba1.9La0.1Cu3.93Zn0.07O8,4
C0.25N0.75Nb0.85Ti0.15,4
C0.35N0.65Nb1,4
Ge0.15Nb3Sn0.85,4
Nb3Si0.06Sn0.94,4
Nb0.69Sn0.25Ta0.06,4
Nb3Sn0.8Ga0.2,4
Nb2.75Ta0.25Sn1,4
Nb2.75Sn1Ta0.25,4
Nb1C0.3N0.7,3.99
Nb3Al0.94Se0.06,3.99
Nb3Al0.8B0.2,3.98
Al1Nb3,3.98
C60K3,3.98
Nb1C0.3N0.64,3.98
Nb3Sn0.8In0.2,3.98
Nb3Sn0.9Al0.1,3.98
Nb3Sn0.91Al0.09,3.97
Pu1Co1Ga5,3.97
La1.45Nd0.4Sr0.15Cu1O4,3.965
La1Fe1As1F0.14O0.86,3.96
Ba1Fe1.808Rh0.192As2,3.96
Ba1Fe1.908Ni0.092As2,3.96
Ba1Fe1.922Rh0.078As2,3.96
Li1Fe1As1,3.959
Ca0.5Na0.5Fe2As2,3.955
Na1Fe0.99Co0.01As1,3.95
La1Fe1As1H0.21O0.79,3.95
Sm1Fe1As0.85P0.15F0.12O0.88,3.95
Ba0.31K0.69Fe2As2,3.95
Na1Fe1Ni0.01As1,3.95
Ba1Fe1.52Ru0.48As2,3.95
Nb3Sn1,3.95
Bi0.15Ge0.15Nb3Sn0.7,3.95
La1.78Sr0.22Cu0.98Ni0.02O4,3.95
La1.8Sr0.2Cu0.98Zn0.02O4,3.94
La1.4Nd0.4Sr0.2Cu1O4,3.94
Al0.9Ga0.1Nb3,3.94
Nb2.976Ti0.024Al1,3.94
Nb2.94Ta0.06Al1,3.94
Nb1C0.3N0.7,3.94
Nb3Al0.8Zn0.2,3.94
Nb3Sn0.8Ge0.2,3.94
Nb2.34Zr0.66Sn1,3.94
Nb2.1Zr0.9Sn1,3.938
Nb2.934V0.066Sn1,3.935
La1.85Sr0.15Cu0.99Fe0.01O4,3.934
Ca1Fe1.9Co0.1As2,3.93
Nb1N0.98O0.02,3.93
Pr1.86Ce0.14Cu1O4,3.93
Na1Fe1Ni0.013As1,3.93
Nb3Sn0.8Ge0.2,3.93
La1.885Sr0.115Cu0.995Zn0.005O4,3.93
N0.85Nb0.66Ti0.34,3.93
Sr2Y1Ru0.92Cu0.08O6,3.93
Mg1B1.736C0.264,3.92
Nb3Sn1,3.92
Nb0.625Sn0.25Ta0.125,3.92
Nb2.5Ta0.5Sn1,3.92
Nb3Al0.81Ge0.19,3.92
Nb2.5Sn1Ta0.5,3.92
Nb2.993Zr0.007Al1,3.92
Nb3Al0.924Se0.076,3.91
Nb3Al0.9Se0.1,3.91
Ga0.308Nb0.692,3.91
Nb1C0.2N0.8,3.91
Li0.8Fe1As1,3.9
Gd1Fe0.8Ir0.2As1O1,3.9
La1Fe0.75Ru0.25As1F0.11O0.89,3.9
Nb0.95Mg0.05N0.92O0.08,3.9
Ca9.75Er0.25Pt3Fe10As18,3.9
Ca0.85Sm0.15Fe1As2,3.9
Sr1Fe1.8Co0.2As2,3.9
Eu0.95La0.9Ce0.15Cu1O4,3.9
Nd2Cu1F0.5O3.5,3.9
Cu2Ge0.25Sr2Y1.3Ce0.7O8.59,3.9
La1.745Nd0.14Sr0.115Cu1O4,3.9
La1.75Nd0.125Sr0.125Cu1O4,3.9
La1.85Sr0.15Cu0.98Zn0.02O4,3.9
La1.8Sr0.2Cu0.98Zn0.02O4,3.9
Nb0.5Sn0.5,3.9
Al0.534Nb0.466,3.9
Al1Nb3,3.9
Nb1C0.2N0.74,3.9
Nb3Si1,3.9
Li1Fe1As1,3.9
Al1Nb1Sn1,3.9
La1.85Sr0.15Cu0.975Ni0.025O4,3.9
Gd0.07Pr1.78Ce0.15Cu1O4,3.9
La1.78Sr0.22Cu0.98Ni0.02O4,3.9
Nb3Sn1,3.9
Nb2.97Zr0.03Al1,3.9
Nb0.768Al0.146Ge0.086,3.9
Nb0.743Zr0.007Al0.25,3.9
Nb3.07Al0.586Ge0.279,3.9
Nb1C0.5N0.47,3.9
Nb3Al0.5Ge0.5,3.9
Ba1Fe1.8Co0.2As2,3.9
Ba1Fe1.82Ni0.18As2,3.9
Pr1Fe1As0.4P0.6F0.1O0.9,3.9
Ca1Fe1.93Co0.07As2,3.9
S1,3.9
Na1Fe1Ni0.008As1,3.9
Nd1.85Ce0.15Cu0.998Ni0.002O4,3.9
Bi1.2Pb0.8Sr1.6La0.4Cu1O6.014,3.9
Nd1.65Y0.2Ce0.15Cu1O4,3.9
C3Y2,3.9
C1N1Nb1,3.9
N0.998Nb1O0.002,3.9
N1Nb1,3.9
Nb0.8Sn0.2,3.9
Nb1C0.5Ni0.5,3.9
Nb0.753Ga0.247Fe0.000,3.9
Nb1C0.3N0.62,3.9
Nb3Al0.67Zn0.33,3.9
Nb2.4Ta0.6Sn1,3.9
Sm1Fe1As1F0.12O0.88,3.9
Sm1Fe0.9Co0.1As1O1,3.9
Sm1Fe0.84Ir0.16As1O1,3.89
Li1Fe1As1,3.89
Nb0.89Al0.11N0.85O0.17,3.89
Nb3Sn1,3.89
Pr1.85Th0.15Cu1O3.98,3.887
Ba0.51K0.49Bi1O3,3.88
Nd1.85Ce0.15Cu1O4,3.88
La1.42Nd0.4Sr0.18Cu1O4,3.88
C0.026N0.974Nb1,3.88
Nb3Sn2,3.88
Nb3Al0.62Ge0.38,3.88
Nb2.94W0.06Al1,3.88
Nb2.859V0.141Al1,3.88
Nb0.536Ga0.095Al0.369,3.87
Nb1C0.2N0.7,3.87
Nb3Sn1,3.862
Sm1La0.802Sr0.198Cu1O4,3.86
Ca1Fe1.87Co0.13As2,3.86
Ba1Fe1.8Co0.2As2,3.86
La1Fe0.7Ru0.3As1F0.11O0.89,3.86
Ce1Fe1As0.95P0.05F0.05O0.95,3.86
Sr1Fe1.2Ru0.8As2,3.86
Nb1N0.87O0.13,3.85
K0.21Ti1N1Br1,3.85
Ba0.807K0.193Fe2As2,3.85
Ba1Fe1.906Co0.094As2,3.85
Al1Nb3,3.85
La1.8Sr0.2Cu0.98Ni0.02O4,3.85
Y1Ba2Cu3O6.41,3.85
B2Mg1,3.85
Si0.25V0.75,3.85
Si1V3,3.85
Al0.25Nb0.75,3.85
C60K3,3.85
Nb3Ga0.85Al0.15,3.85
Nb2.85V0.15Sn1,3.845
Sm1Fe1As1F0.12O0.88,3.84
Ba1Fe1.904Co0.096As2,3.84
Ba1Fe1.73Co0.27As2,3.838
Ca1Fe1.8Co0.2As2,3.83
La0.81Gd0.06Sr0.13Fe1As1O1,3.83
Ca4Al2Fe2P2O6,3.83
Ba1Fe2As0.48P1.52,3.83
Nb3Sb0.1Sn0.9,3.83
La1.85Ca0.15Cu1O4,3.82
Nd1.85Th0.15Cu1O3.98,3.82
La1.9Ba0.1Cu0.99Ni0.01O4,3.82
Sr2Y0.7Ca0.3Cu2.35Pb0.65O6.89,3.82
La1.875Ba0.05Sr0.075Cu1O4,3.82
Y1Sr2Cu2.65Ga0.35O6.6,3.82
Bi1.95Sr1.25Pr0.8Cu1O4,3.82
Bi2Sr2Ca0.8Ce0.2Cu2O8,3.82
Y1Ba2Cu3.92Ni0.08O8,3.81
Bi2Sr1.6Sm0.4Cu1O6.3,3.81
La1.5Sm0.3Sr0.2Cu1O4,3.81
Y0.4Pr0.6Ba1.25Sr0.75Cu3O6.92,3.81
Y1Ba2Cu3O6.38,3.81
Pr1.85Ce0.15Cu1O4,3.81
Sm1.85Ce0.15Cu1O4,3.809
La2Cu1O4.062,3.808
Pr1.85Ce0.15Cu1O4,3.8
Sm1.85Ce0.15Cu1O4,3.8
La1.04Pr0.85Sr0.11Cu1O4,3.8
La0.92Pr0.85Sr0.23Cu1O4,3.8
La1.78Sr0.22Cu0.99Zn0.01O4,3.8
Y1Ba2Cu2.919Zn0.081O6.7,3.8
Nd1.295Gd0.555Ce0.15Cu1O4,3.8
La1.84Y0.04Sr0.12Cu1O4,3.8
Ru1Sr2Eu1Cu2O8,3.8
Ba0.445K0.555Bi1O3,3.8
La0.6Rh4P12,3.8
Y1,3.8
Si1V3,3.8
C1.55Th0.3Y0.7,3.8
Ge1Nb3,3.8
Hf0.33Nb0.67,3.8
Si0.25V0.75,3.8
Nb0.592Sn0.013Al0.332Ge0.063,3.8
Y0.7Th0.3C1.35,3.8
Nb3Al0.8Be0.2,3.8
N0.74H2.22Na1Rb2C60,3.8
Li1,3.8
Nb1C0.5N0.42,3.8
Nb3Sn0.8Ga0.2,3.8
Y1.4Th0.6C3.1,3.8
Ca1Fe2.94Co0.06As2,3.8
H4Si1,3.8
Sr4Sc2Fe2P2O6,3.8
Ba1Fe1.906Co0.094As2,3.8
La1Fe1As1F0.1O0.9,3.8
Li1Fe1As1,3.8
Fe2P2Sr4Sc2O6,3.8
Ca4Al2Fe2P2O5.8,3.8
Sm1Fe1As0.5P0.5O0.85,3.8
Ca0.64Na0.36Fe2As2,3.8
Ba1Fe1.93Ni0.07As2,3.8
Ba1Fe1.83Zn0.06Co0.11As2,3.8
K0.8Fe1.992Co0.008Se2,3.8
Ba0.8K0.2Fe2As2,3.8
Na1Fe0.95Co0.05As1,3.8
Nb0.95Mg0.05N0.92O0.08,3.8
Sm1Fe1As0.55P0.45H0.26O0.74,3.8
Ba0.797K0.203Fe2As2,3.8
Ba1Fe2S3,3.8
La1.8Eu0.2Cu0.995Ni0.005O3.5,3.8
Nb1C0.9N0.1,3.795
Si0.25V0.75,3.79
Si0.3V0.7,3.79
Y1Ba2Cu2.7Co0.3O6.93,3.79
La1.74Nd0.1Ba0.16Cu1O4,3.79
La1.72Nd0.2Ba0.08Cu1O4,3.79
Nb3Sn0.8Al0.2,3.79
Al0.24Nb0.76,3.78
Al0.25V0.75,3.78
Nb3Sn0.95,3.78
Si1V3,3.78
Y1Ba2Cu3.88Co0.12O8,3.77
Li1Fe1As1,3.77
Sm1Fe0.8Ru0.2As1F0.15O0.85,3.77
Ca1Fe1.926Co0.074As2,3.77
Ba1Fe1.915Ni0.085As2,3.77
Ga0.15Nb3Sb0.15Sn0.7,3.77
Si0.25V0.75,3.77
Si1V3,3.766
Al1Nb3,3.76
Si1V3,3.76
La1Nd0.87Ce0.13Cu1O3.975,3.76
La1.8Sr0.2Cu0.98Ni0.02O4,3.76
La1.75Sr0.25Cu1O4,3.76
Nd0.9Pr0.1Ba2Cu3O6.65,3.76
Sm1.25Gd0.6Ce0.15Cu1O3.97,3.76
Sm1.15Gd0.7Ce0.15Cu1O3.97,3.76
Ca1.88Na0.12Cu1Cl2O2,3.76
Ga1V3,3.76
Nb2.85Ta0.15Al1,3.76
Nb3Sn0.8Al0.2,3.76
Y1.3Th0.7C2.7,3.752
Y1.4Th0.6C3,3.75
Ca1Fe1.854Co0.146As2,3.75
Li1Fe1As1,3.75
Nb0.87Si0.09N0.13O0.13,3.75
Ba1Fe1.91Co0.09As2,3.75
Pr1.85Ce0.15Cu1O4.065,3.75
Nb0.75Sn0.125Zr0.125,3.75
Si0.25V0.75,3.75
Ge1Nb3,3.745
Lu1Ni2B2C1,3.744
Si1V3,3.743
Nb3Sn0.5Zr0.5,3.742
Y1.5Th0.5C3,3.74
Ba1Fe1.906Co0.094As2,3.74
Ba1Fe1.982Mo0.018As2,3.74
Nb0.89Al0.11N0.84O0.16,3.74
Si0.25V0.75,3.74
La1.85Sr0.15Cu0.985Zn0.015O4,3.734
Pu1Co0.9Ni0.1Ga5,3.732
Pd0.55Cu0.45H0.7,3.73
P0.2Si0.8V3,3.73
Si0.25V0.75,3.73
Nb3Sn2,3.73
V3Si0.99Be0.01,3.73
Lu1Ni2B2C1,3.73
Nb2.973Zr0.027Al1,3.73
Lu1Ni2B2C1,3.726
Si1V3,3.725
La1.85Sr0.15Cu0.975Ni0.025O4,3.722
Ca1Fe0.8Co0.2As1F1,3.722
Nd1Fe0.9Rh0.1As1O1,3.72
Li1Fe1As1,3.72
Ba1Fe2As2,3.72
Ca3Al2Fe2P2O5,3.72
Ca4Al2Fe2P2O6,3.72
Nd1.85Ce0.15Cu0.998Co0.002O4,3.72
La1.8Ba0.2Cu1O4,3.72
Ba0.5K0.5Bi1O3,3.71
Nd1.85Ce0.15Cu0.995Fe0.005O4,3.71
La1.735Nd0.15Sr0.115Cu1O4,3.71
La1.75Sr0.25Cu1O4,3.71
Ca1.7Na0.3Cu1Br2O2,3.71
N0.92Nb1,3.7
Nb3Sn0.5Zr0.5,3.7
Si23.8V74.65,3.7
Nb2.919Hf0.081Al1,3.7
Nb0.75Al0.2Ge0.05,3.7
Sc1Ni2B2C1,3.7
Lu1Ni2B2C1,3.7
Nb3Sn0.65Ga0.35,3.7
Nb3Sn0.8Sb0.2,3.7
N1Nb1,3.7
La1.85Sr0.15Cu0.975Ni0.025O4,3.7
Ba1Fe1.77Co0.23As2,3.7
La1.943Sr0.076Cu1O4,3.7
Ca1Fe1.888Co0.112As2,3.7
La0.81Dy0.06Sr0.13Fe1As1O1,3.7
Nb1C1N1,3.7
Sm1Fe0.875Ir0.125As1O1,3.7
Ba0.77K0.23Fe2As2,3.7
Li0.5Ti1N1Cl1,3.7
Pr0.65Sr0.35Fe1As1O1,3.7
Ga1Nb3,3.7
La0.006Si1V2.994,3.7
V2.994La0.006Si1,3.7
Gd1Sr2Ru1Cu2O8,3.7
Ga1V1,3.7
La0.99Rh4P12,3.7
Eu2.17Ce0.5Sr1.33Cu2.5Al0.5O9.02,3.7
La1.88Sr0.12Cu1O4,3.7
Y2C2.9B0.1,3.7
Sm1.844Ce0.156Cu1O4,3.7
Nb3Si0.25Sn0.75,3.7
Nb0.5Sn0.25Ta0.25,3.7
V2.979Co0.021Si1,3.7
Nb2Ta1Sn1,3.7
Si22.5V75,3.7
Nb2Sn1Ta1,3.7
Si10.9V3C0.1,3.7
Nb0.75Al0.225Si0.025,3.7
Nb1C0.3N0.57,3.7
Nb3Sn0.5Ga0.5,3.7
Nb3Ga0.5Zn0.5,3.7
Nb3Sn0.49Ga0.51,3.7
Nb3Ga0.5Sn0.5,3.7
Nb2.7Ti0.3Sn1,3.7
Y1.4Th0.6C2.7,3.7
C0.28N0.76Nb1,3.7
Li0.5Nb1O2,3.7
Ca1Fe0.8Co0.2As1F1,3.7
Ba1Fe1.94Pd0.06As2,3.7
K0.76Fe1.61Se0.96S1.04,3.7
Ba1Fe1.772Co0.228As2,3.7
Lu1Ni2B2C1,3.69
Nb0.87Si0.09N0.87O0.13,3.69
Bi1Pb1Sr1.5La0.5Cu1O6,3.69
La1.85Sr0.15Cu0.97Ni0.03O4,3.69
Y0.65Pr0.35Ba2Cu3O6.85,3.69
Nb3Sn0.5Al0.5,3.69
Y1Ni2Pd1,3.69
Ga0.3Nb0.7,3.69
Nb1C0.2N0.64,3.68
Nb3Ga0.65Zn0.35,3.68
Nb3Ga0.65Sn0.35,3.68
Y1.4Th0.6C2.8,3.68
Y1.4Th0.6C2.9,3.68
Pr0.75Sr0.25Fe1As1O1,3.68
Li1Fe1As1,3.677
Sr1Fe1.75Pt0.25As2,3.67
Ba1Fe1.988Mo0.012As2,3.67
K0.5Ti1N1Cl1,3.67
Na0.5Ti1N1Cl1,3.67
Rb0.5Ti1N1Cl1,3.67
Rb0.22Ti1N1Br1,3.67
K0.46Ti1N1Br1,3.67
La1Fe0.999Mn0.001As1F0.11O0.89,3.669
Mn0.03Si1V2.97,3.666
V2.97Mn0.03Si1,3.66
Pr1.85Ce0.15Cu1O4.175,3.66
La1.75Sr0.25Cu1O4,3.66
Y1Ba1.8La0.2Cu3.97Zn0.03O8,3.66
Pr0.82La1Ce0.18Cu1O4,3.66
In0.2Si0.8V3,3.655
Si21.75V69.43,3.65
Nb80Ga19.4Fe0.06,3.65
Lu1Ni2B2C1,3.65
Nb3Ga0.8Zn0.2,3.65
Nb3Ga0.8Sn0.2,3.65
Lu0.98La0.02Ni2B2C1,3.65
Nb3Sn0.9,3.65
Pr0.75Sr0.25Fe1As1O1,3.65
Sr0.54Eu0.46Fe1.78Co0.22As2,3.65
Nb0.9Mg0.1N0.87O0.13,3.65
Ca0.85La0.15Fe1As2,3.65
Li1Fe1As1,3.65
Ca0.74La26Fe0.935Co0.065As2,3.644
Y1Ni2B2C1,3.642
V3Si0.98Al0.02,3.64
Nd1.84Ce0.16Cu1O3.96,3.64
La1.76Sr0.24Cu0.97Ru0.03O4,3.64
Al0.1Si0.9V3,3.64
Nb3Sn0.1Al0.9,3.64
N1Nb1,3.64
N12.8Nb1,3.64
Lu1Ni2B2C1,3.64
Lu1Ni2B2C1,3.63
Lu1Ni2B2C1,3.628
Mg0.6Al0.2Li0.2B2,3.625
Nb3Sn0.65Ge0.35,3.625
Nb3Sn0.5Al0.5,3.62
Ga1Nb3,3.62
Nb3Ga0.9Zn0.1,3.62
Nb3Sn0.65Ge0.35,3.62
Nb3Ga0.9Sn0.1,3.62
Nb0.75Ti0.25N0.94,3.616
La1Fe0.95Co0.05As1F0.11O0.89,3.61
Lu1Ni2B2C1,3.61
In0.15Nb3Sb0.15Sn0.7,3.61
Ca0.8La0.2Fe0.98Co0.02As2,3.61
Nb3Sb0.15Sn0.7Tl0.15,3.61
Y1Ni2B2C1,3.6
Sr0.2La1.8Cu0.95Co0.05O4,3.6
Ba0.6K0.4Bi1O3,3.6
Bi2Sr2Sm1.64Ce0.36Cu2O10.24,3.6
Tl2Ba2Cu1O6.08,3.6
Nd0.95La0.9Th0.15Cu1O4,3.6
Nd0.85La1Th0.15Cu1O4,3.6
La1.85Sr0.15Cu0.985Co0.015O4,3.6
Y1Sr2Cu2.8V0.2O6.5,3.6
Y1Sr1.55Ba0.45Cu2.5B0.5O7,3.6
La1Nd0.86Ce0.14Cu1O3.978,3.6
Sr1.7K0.3Cu1C1O5,3.6
Tl1Ba1Sr1Ca1Cu2O7,3.6
Gd1Ba1.5Sr0.5Cu3O6.63,3.6
Sr1.2Ba0.8Y1Cu2.8Al0.2O7.19,3.6
Pr1.87Ce0.13Cu1O3.99,3.6
La1.7Nd0.15Ca0.056Ba0.094Cu1O4,3.6
Pr1.831Y0.018Ce0.15Cu1O4,3.6
Nd1.665Y0.185Ce0.15Cu1O4,3.6
Ru1Sr2Gd1Cu2O8,3.6
La1.83Nd0.1Ba0.07Cu1O4,3.6
Tl1Ba0.4Ca0.6La1Cu1O5,3.6
Nd1.85Ce0.15Cu0.997Ni0.003O4,3.6
La1.83Sr0.17Cu0.98Co0.02O4,3.6
La1.5Ba1.4Ca0.1Cu3O6.912,3.6
La1.5Ba1.3Ca0.2Cu3O6.897,3.6
La1.5Ba1.3Ca0.2Cu3O7.002,3.6
La1.75Sr0.25Cu1O4,3.6
La1.76Sr0.24Cu1O4,3.6
Y1Ba2Cu3.96Zn0.04O8,3.6
La1.92Ca0.08Cu1O4,3.6
La1.985Sr0.015Cu1O4.024,3.6
Bi2Sr2Cu1O6.13,3.6
Ru0.9Sn0.1Sr2Eu1Cu2O8,3.6
N1Nb1,3.6
V2.97Mo0.03Si1,3.6
Nb3Sn0.6Ga0.4,3.6
Nb0.517Sn0.013Al0.450Ge0.021,3.6
Lu1Ni2B2C1,3.59
Nb2.917Ti0.083Al1,3.59
Nb2.895W0.105Al1,3.59
Sc1Ni2B2C1,3.59
Li1Hf0.22Zr0.78N1Br1,3.59
Mg1B1.84F0.16,3.59
Nb3Al0.67In0.33,3.59
Nb3Al0.5Zn0.5,3.59
Nb3In0.2Sb0.2Sn0.6,3.58
Nb3Al0.5Sn0.5,3.58
Ga1Nb3,3.58
Nb2.1Ta0.9Sn1,3.58
Y1.2Th0.8C2.7,3.58
Si1V3,3.58
La1.7Sr0.3Cu1O4,3.58
La1.89Na0.11Cu1O4,3.58
La1.912Ca0.087Cu1O4,3.57
Li1Fe1As1,3.57
Na1Fe0.95Co0.05As1,3.57
Sr1Fe1.84Pt0.16As2,3.57
Ba0.95K0.05Fe1.782Co0.212As2,3.57
La1.85Sr0.15Cu0.983Zn0.017O4,3.56
Pr1Fe0.9Co0.1As1O1,3.56
Pr0.8Sr0.2Fe0.85Co0.15As1O1,3.56
Fe1.7Co0.3As2Sr4Mg1Ti1O6,3.56
Lu1Ni2B2C1,3.56
Li1Fe1As1,3.56
Ce1Fe1As0.6P0.4F0.05O0.95,3.56
K0.5Ti1N1Cl1,3.55
Ba1Fe1.892Ni0.108As2,3.55
Sm1Fe0.85Ir0.15As1O1,3.55
Sm1Fe0.94Mn0.06As1F0.12O0.88,3.55
Ba1Fe1.97Mn0.03As1.3P0.7,3.55
Ca10Ir4Fe10As18,3.55
Ba1Fe1.784Co0.216As2,3.54
La1.8Eu0.2Cu0.995Zn0.005O3.5,3.54
Lu1Ni2B2C1,3.54
Si23.27V75.15,3.54
La0.06Si1V2.94,3.54
V2.94La0.06Si1,3.54
Nd1.85Ce0.15Cu1O4,3.54
La1.8Nd0.2Cu1O4.025,3.53
Pr1.85Ce0.15Cu1O4,3.53
Lu1Ni2B2C1,3.52
Nb3Al0.5Ge0.5,3.52
Nb2.7V0.3Sn1,3.52
Si1V3,3.52
Ga1V3,3.52
Sm1Fe0.64Ru0.36As1F0.15O0.85,3.52
Ba1Fe2As1.5P0.5,3.52
Na1Fe0.95Co0.05As1,3.52
Ba0.76Na0.24Fe2As2,3.52
Nb3Sn0.8,3.517
Pr1.85Ce0.15Cu0.998Ni0.002O4.065,3.51
Ba1Fe1.74Zn0.04Co0.22As2,3.51
Gd0.12Pr1.73Ce0.15Cu1O4,3.51
Y0.3Pr0.7Sr2Cu2.85Re0.15O7,3.51
Al0.5Nb3Sn0.5,3.51
Mo0.25Tc0.75,3.51
Nb0.03Si1V2.97,3.51
Si0.263V0.737,3.51
V2.97Nb0.03Si1,3.51
Nb3Sn0.6Sb0.4,3.51
Si10.9V3B0.1,3.51
Si22.5V75,3.51
Lu1Ni2B2C1,3.5
Nb3Sn0.7Al0.3,3.5
Nb3Sn0.7Sb0.3,3.5
Y1.2Th0.8C2.9,3.5
Sm1Fe0.875Co0.125As1O1,3.5
Pr0.8Sr0.2Fe1As1O1,3.5
Y0.9Ca0.1Ba2Cu2.8Zn0.2O6.74,3.5
Pr0.8Sr0.2Fe0.85Co0.15As1O1,3.5
Ba1Fe1.902Co0.098As2,3.5
Sr1Fe1.8Pt0.2As2,3.5
Ca10Pt3.53Fe9.47As18,3.5
Na1Fe0.983Co0.018As1,3.5
Ca1Fe1.902Co0.098As2,3.5
Y1Ni2B2C1,3.5
Nb1C1N1,3.5
La1Fe1As0.7P0.3F0.05O0.95,3.5
La1Nd0.91Ce0.09Cu1O3.97,3.5
La1.8Sr0.2Cu0.978Zn0.022O4,3.5
Nd1.83Ce0.17Cu1O4,3.5
Sm1.85Ce0.15Cu1O4,3.5
C3Y2,3.5
Al0.2Si0.8V3,3.5
Ge1Nb3,3.5
Nb3Sn0.6Al0.4,3.5
Pr1Fe0.925Co0.075As1O1,3.5
Ca1Fe1.82Co0.18As2,3.5
Na1Fe0.977Co0.023As1,3.5
Ba2Ti2Fe1.96Cr0.04As4O1,3.5
Bi1.5Pb0.5Sr1.7La0.3Cu1O5.993,3.5
La1.85Sr0.15Cu0.8Mg0.2O4,3.5
Pr0.8La1Ce0.2Cu1O4,3.5
La1.8Sr0.2Cu0.98Ru0.02O4,3.5
La1.78Sr0.22Cu0.97Ru0.03O4,3.5
La1.925Sr0.075Cu1O4,3.5
Pd0.7Ag0.3H0.8,3.5
N1Nb1,3.5
V3Si0.76Be0.24,3.5
Sc0.5Lu0.5Ni2B2C1,3.5
Lu1Ni1.991Co0.018B2C1,3.5
Nb2.706V0.294Al1,3.5
Ga0.273Nb0.727,3.5
Nb1C0.5N0.36,3.5
Nb2.55Ti0.45Sn1,3.5
Ba1Fe1.42Ru0.58As2,3.5
Li1Fe1As1,3.5
Tb0.56Ca0.44Fe1As1O1,3.5
Sm1Fe0.9Co0.1As1O1,3.5
Fe1Te0.5Se0.5,3.5
Sm1Fe1As0.8P0.2F0.12O0.88,3.5
La1Fe0.991Zn0.009As1F0.08O0.9,3.5
Ca0.74La26Fe0.967Co0.033As2,3.5
Y0.9Lu0.1Ni2B2C1,3.5
Ba1Fe1.52Ru0.48As2,3.5
Ba1Fe1.868Co0.094Cu0.038As2,3.5
Nd1.85Ce0.15Cu0.999Co0.001O4,3.5
Ba0.5K0.5Bi1O3,3.49
Pr1.665Gd0.185Ce0.15Cu1O4,3.49
Nd1.85Ce0.15Cu0.99Zn0.01O4,3.49
Pb0.5Cd0.5Sr1.8Eu1.6Ce0.6Cu2O9,3.49
La1.795Sr0.205Cu0.98Ru0.02O4,3.49
Y0.4Pr0.6Ba1.2Sr0.8Cu3O7,3.49
Pu1Co0.5Rh0.5Ga5,3.49
Mn0.21Si1V2.79,3.48
V2.79Mn0.21Si1,3.48
Y1Ni2B2C1,3.48
Nb2.85Mo0.15Al1,3.48
Mo1Ni1P1,3.478
Mo1Ru1P1,3.478
Y1Ni2B2C1,3.47
Mo1Ru1P1,3.47
Mo1Ni1P1,3.47
Y1Th1C2.7,3.47
Ba1Fe1.8Co0.2As2,3.47
Pr0.85Sr0.15Fe1As1O1,3.468
Ba1Fe1.916Co0.084As2,3.468
Ca1Fe1.94Co0.06As2,3.46
Y1Ni2B2C1,3.46
Pr2Ba4Cu7O14.74,3.46
Ca1Fe1As1F1,3.46
Y1Ni2B2C1,3.458
Y1Ni1.98Mn0.02B2C1,3.45
Y1Ni2B2C1,3.45
Lu1Ni2B2C1,3.45
Nd1.5Ba1.5Cu3O7.12,3.45
Y1Ba2Cu3O6.38,3.45
La1.93Sr0.07Cu1O4,3.45
Al1Nb2.7V0.3,3.45
Ga1V3,3.45
Nb2.739Ta0.261Al1,3.45
Nb0.75Al0.2Si0.05,3.45
Nb0.75Al0.15Si0.1,3.45
Ga0.250Nb0.750,3.45
Y1Ni2B2C1,3.444
Nb3Ga0.95Ge0.05,3.44
Y1.4Th0.6C2.4,3.44
Ga0.31V0.69,3.44
Ca1Fe0.9Ni0.1As1F1,3.44
Na1Fe0.975Ni0.025As1,3.43
Pr0.65Sr0.35Fe1As0.95P0.05O1,3.43
La1Fe1As1H0.25O0.75,3.43
Ce0.12Si1V2.88,3.43
V2.88Ce0.12Si1,3.43
Nd1.85Ce0.15Cu0.997Ni0.003O4,3.427
La1.75Sr0.25Cu0.97Ru0.03O4,3.42
Ga0.25V0.75,3.42
Y1Ni2B2C1,3.418
Y1Ni2B2C1,3.41
Ga0.2Nb0.8,3.41
Nb3Ga0.95Ge0.05,3.409
Lu0.95La0.05Ni2B2C1,3.407
Ga1V3,3.405
Ga0.196V0.804,3.403
Nb5Ge3C0.3,3.4
La1.9Sr0.1Cu0.993Zn0.007O4,3.4
N1Nb1,3.4
La1.7Sr0.3Cu1O4,3.4
La1.83Sr0.17Cu0.97Ni0.03O4,3.4
Tl1Sr2Ca1Cu2O6.862,3.4
Li0.06Zr1N1Cl1,3.4
Mo6Pb0.92S7.5,3.4
Nb0.606Sn0.034Al0.304Ge0.056,3.4
Nb2.85W0.15Al1,3.4
Ga0.250Nb0.750,3.4
Y1Ni2B2C1,3.4
N0.8H2.4Na1Rb2C60,3.4
Li0.28Zr1N1Cl1,3.4
K0.22Zr1N1Cl1,3.4
K0.4Zr1N1Cl1,3.4
Y0.16Lu0.84Ni2B2C1,3.4
Y0.92Lu0.08Ni2B2C1,3.4
Nb0.92Ti0.08N0.93,3.4
Ga1V3,3.4
C3Y2,3.4
Ca1Fe1.85Co0.15As2,3.4
Fe1Se0.5Te0.5,3.4
Na0.23Ti1N1Br1,3.4
Ba0.8Na0.2Fe2As2,3.4
Ba1Fe2As1.04P0.96,3.4
Ca1.89Na0.11Cu1Cl2O2,3.4
Nd1.85Ce0.15Cu0.99Zn0.01O4,3.4
Ga0.248V0.752,3.4
Nb3Sn0.6Al0.4,3.4
Sc0.9Y0.1Ni2B2C1,3.4
Ho0.15Lu0.85Ni2B2C1,3.4
Nb0.5Ti0.5N0.95,3.4
Lu0.94La0.06Ni2B2C1,3.4
Y0.8Th1.2C2.7,3.4
Mo1N1,3.4
Ga0.194V0.806,3.4
Ba1Fe1.936Ni0.064As2,3.4
Ba1Fe1.91Co0.09As2,3.4
Li1Fe1As1,3.4
Ca1Fe1.94Co0.06As2,3.4
Pb1Mo6S8,3.396
La1.85Sr0.15Cu0.925Zn0.025O4,3.39
La1.84Sr0.16Cu0.975Ni0.025O4,3.38
Eu1.25La0.6Ce0.15Cu1O4,3.38
Eu0.85La1Ce0.15Cu1O4,3.38
Nd0.85La1Ce0.15Cu1O4,3.38
Bi1Pb1Sr0.2Pr0.2Cu1O6,3.38
La1.85Sr0.15Cu0.985Al0.015O4,3.38
La1.8Ca1.032Sr0.168Cu2O6.08,3.38
Eu0.6Pr0.4Ba2Cu3O6.97,3.38
La1.95Sr0.05Cu1O4,3.38
Tl2Ba2Cu1O6,3.38
Y1Ba2Cu3O6.35,3.38
Y1Sr0.5Ba1.5Cu2.5B0.5O7,3.37
Ca1.702Cu0.851Cl1.851Na0.149O2.404,3.37
Pr1.794Y0.056Ce0.15Cu1O4,3.37
Sm1.804Y0.046Ce0.15Cu1O4,3.37
Y0.6Pr0.4Ba2Cu3O6.53,3.37
La1.7Nd0.2Ba0.1Cu1O4,3.37
La1.9Gd0.1Ba2Ca0.2Cu4.2O9.839,3.36
Pr1.794Y0.056Ce0.15Cu1O4,3.36
Sm1.804Y0.046Ce0.15Cu1O4,3.36
Yb0.45Pr0.55Ba1.7Sr0.3Cu3O6.91,3.36
La1.735Nd0.14Sr0.125Cu1O4,3.35
La1.78Sr0.22Cu0.99Zn0.01O4,3.35
La1.75Sr0.25Cu1O3.93,3.35
Y1Ba2Cu3O6.68,3.35
Nd1.11Gd0.74Ce0.15Cu1O4,3.35
Sm1.758Gd0.092Ce0.15Cu1O4,3.35
Sm1.05Gd0.8Ce0.15Cu1O3.97,3.35
La1.85Sr0.15Cu0.983Zn0.018O4,3.345
La1.45Nd0.4Sr0.15Cu1O4,3.342
La1.92Ce0.08Cu1O4,3.342
Ca1.875Na0.125Cu1Br1Cl1O2,3.34
Ca1.9Cu1Cl2O2,3.34
Ba1.34Eu2Ce0.66Cu3O8.96,3.34
C1,3.34
Pr1.83Ce0.17Cu1O4,3.34
B3Mo6S8Sn1,3.34
Mo0.7Re0.3,3.33
Nb1Ru3,3.33
Y1Ni2B2C1,3.33
Na4H4C60,3.33
Ca1,3.33
Nb2.88Ti0.12Al1,3.325
Nb0.75Al0.2Ge0.05,3.32
Nb0.748Ga0.237Fe0.016,3.32
K2.75Ba0.25C60,3.32
Y1Ni2B2C1,3.32
Li0.16Zr1N1Cl1,3.315
Li0.14Zr1N1Cl1,3.31
Li0.55Zr1N1Cl1,3.31
Li0.65Zr1N1Cl1,3.31
Na0.5Zr1N1Cl1,3.31
Na0.59Zr1N1Cl1,3.3
K0.46Zr1N1Cl1,3.3
Y0.3Lu0.7Ni2B2C1,3.3
Nb2.55V0.45Sn1,3.3
N1Nb1,3.3
Pb1Mo6S8,3.3
Pu1Co1Ga5,3.3
Sm1Fe0.925Co0.075As1O1,3.3
Na1Fe1As1,3.3
Ca1Fe1.94Ni0.06As2,3.3
Pr1Fe0.925Co0.075As1O1,3.3
Nd1Fe0.9Rh0.1As1O1,3.3
Fe1Te0.5Se0.5,3.3
Ba0.5K0.5Fe1.92Mn0.08As2,3.3
Li0.05Zr1N1Cl1,3.3
Ba0.49K0.51Fe1.79Co0.21As2,3.3
Fe2As2Ca5Al1.5Ti1.5O9,3.3
Fe1P1Sr2Sc1O3,3.3
Lu1Ni2B2C1,3.3
Fe1Te0.57Se0.43,3.3
Pr0.8Sr0.2Fe1As1O1,3.3
Sm1Fe0.9Co0.1As1O1,3.3
Ba1Fe1.44Ru0.56As2,3.3
Fe1Te0.65Se0.35,3.3
Ca1.875Na0.125Cu1Cl2O2,3.3
Li1Fe1As1,3.3
Ba0.81K0.19Fe2As2,3.3
Nb0.95Mg0.05N0.92O0.08,3.3
Tl2Ba2Cu1O6,3.3
Ce1Fe1As0.55P0.45F0.05O0.95,3.3
Zn0.04Zr1N1Cl1,3.3
Mg0.16Zr1N1Cl1,3.3
Ba0.805K0.195Fe2As2,3.3
La1Fe0.995Mn0.005As1F0.11O0.89,3.3
La1.8Eu0.2Cu0.99Ni0.01O3.5,3.3
Y1Ni2B2C1,3.3
Y0.6Pr0.4Ba2Cu3O6.5,3.3
La1.62Nd0.2Ba0.18Cu1O4,3.3
Ga0.253V0.747,3.3
N0.988Nb1,3.3
Nb0.8Ga0.195Cr0.005,3.3
Y0.5Lu0.5Ni2B2C1,3.3
Lu0.5Y0.5Ni2B2C1,3.3
Y0.75Lu0.25Ni2B2C1,3.3
Ga0.198V0.802,3.3
La0.8Rh4P12,3.3
Tb1Fe1As1O0.7,3.3