formula,Tc,type
Mo0.6Ru0.97,9.0,original
Nb0.32Zr2.23,9.0,original
Ge0.23Si0.11V2.32,9.0,original
Mo0.85Ta0.96,9.0,original
B1.62Ni4.64Y2.04,9.0,original
B1.62Co0.14Ni4.72Tm7.72,9.0,original
Ga0.11Nb0.85,9.0,original
B1.62Mn2.79Ni4.29Y2.04,9.0,original
Ca1.05Rh2.06Sn3.87,9.0,original
Mo7.34Pb1.51Se4.83Yb4.91,9.0,original
Bi1.47,9.0,original
B1.62Ho10.97Ni4.79,9.0,original
Ga0.41Si0.11V2.32,9.0,original
Tc10.78Ti0.4,9.0,original
Ca3.54Rh7.17Sn11.37,9.0,original
As1.47Fe2.11Pd0.2Sr1.46,9.0,original
As1.47Ba0.64Fe2.2,9.0,original
B1.62Zr3.54,9.0,original
B1.62Mo6.09P1.78,9.0,original
Nb6.17Re35.59,9.0,original
Ga47.26Mo7.34V1.53,9.0,original
Fe1.02Se0.46,9.0,original
As1.47Ba0.64Fe2.07Ni0.26,9.0,original
Fe1.02Se0.47,9.0,original
Bi0.67Pb0.92,9.0,original
Ge8.27Os12.44Y11.62,9.0,original
Mo0.35Ta3.1,9.0,original
As1.47Fe2.11Ni0.18Sr1.46,9.0,original
B3.4Gd0.8Rh7.17Y1.8,9.0,original
N5.82V0.73,9.0,original
As1.47Fe2.1Ni0.21Sr1.46,9.0,original
Bi1.47F2.5La1.11S2.07,9.0,original
Mo0.13Re1.09,9.0,original
Bi0.29Pb2.16,9.0,original
B3.4Lu3.29Rh7.17,9.0,original
Bi1.47Eu6.81F5.12S2.07,9.0,original
Cu0.13La2.29O0.48,9.0,original
Be21.75Mo0.22Re0.99,9.0,original
Be21.75Mo0.35Re0.84,9.0,original
Be0.73Os0.52,9.0,original
N5.82Nb2.37,9.0,original
Nb6.17Sb4.84,9.0,original
Nb0.28Ti2.46,9.0,original
V0.5Zr,9.0,original
La3.98Se2.38,9.0,original
Ga0.53V2.32,9.0,original
La3.98Sc19.99,9.0,original
Ta0.39Ti2.97,9.0,original
Mo7.34S8.78Yb11.91,9.0,original
Rh2.43Sn3.95Yb9.91,9.0,original
Nb0.15Zr2.74,9.0,original
Ge0.73V2.32,9.0,original
Rh7.17Sn11.37Yb29.9,9.0,original
Fe1.02Te1.88,9.0,original
Fe1.01Se0.45,9.0,original
As1.14Ba0.64Fe2.3P0.66,9.0,original
Bi3.16Te2.37,9.0,original
Ga0.18V0.54,9.0,original
Mg3.17Ni7.03,9.0,original
V0.5,9.0,original
As0.65Fe0.99La1.11,9.0,original
Rh0.4Zr2.43,9.0,original
Nb0.16Ta0.42Ti2.63,9.0,original
V0.5Zr0.6,9.0,original
Ir2.32Nb6.17Pt3.75,9.0,original
Nb1.05Ta0.11,9.0,original
As0.42Ba0.64Fe2.3P2.3,9.0,original
Rh7.17Sc25.01Si3.27,9.0,original
Ge9.94La1.11Pt9.58,9.0,original
As1.47Ba0.64Co0.9Fe2.01,9.0,original
C10.41K16.22,9.0,original
Ce0.71Cu0.13Gd4.92O0.48Sm8.85,9.0,original
Ce0.71Cu0.13La2.33O0.48,9.0,original
P22.25Ru11.04Y2.04,9.0,original
Ir6.85Sc25.01Si3.27,9.0,original
Bi0.63Pb0.7Sn0.11,9.0,original
Nb0.15Ti2.98,9.0,original
Ga1.1,9.0,original
N29.48Nb4.9,9.0,original
Nb0.47Ti0.72V0.18,9.0,original
Re1.22,9.0,original
Bi0.63Pb0.7Sn0.12,9.0,original
Bi0.63Pb0.89,9.0,original
N5.23Nb1.1,9.0,original
Mo0.78Ta1.22,9.0,original
Cu1.52Mo7.34S8.78,9.0,original
B1.62Co0.5Ni4.44Y2.04,9.0,original
C10.41H10.12N5.41Na3.91Rb11.45,9.0,original
B1.97La0.97Nd0.35Pt4.96,9.0,original
C10.41Cs10.49Na7.87,9.0,original
Mo0.87Re0.21,9.0,original
In1.68La3.97,9.0,original
Mo0.6Pt0.1Re0.39,9.0,original
Nb1.06,9.0,original
Sc4.95,9.0,original
Li2.32O0.75V1.53,9.0,original
B1.62Er7.65Ni4.64,9.0,original
Fe1.04Se0.54,9.0,original
Fe0.89Se0.45,9.0,original
Al0.19Fe0.7Se0.45,9.0,original
Fe1.2Te2.15,9.0,original
Fe0.96Te1.75,9.0,original
Mo0.85Re0.24,9.0,original
Fe1.01Se0.54,9.0,original
FeSe0.54,9.0,original
Fe1.02Se0.23Te1.13,9.0,original
H54.74Th14.52,9.0,original
Mo7.34S8.78Yb9.91,9.0,original
As1.47Co0.96Eu3.35Fe1.99Sr0.58,9.0,original
Fe1.05S0.28Te1.13,9.0,original
B3.4Ho5.45Lu1.59Rh7.17,9.0,original
As1.47Ba0.64Fe1.84Ru0.85,9.0,original
H1.39Hf9.88V1.53,9.0,original
Nb1.02Ta0.22,9.0,original
Ce0.71Cu0.13Nd9.09O0.48,9.0,original
C10.41Cs5.21Na7.87Rb2.8,9.0,original
Bi1.47K4.28O0.2,9.0,original
Co4.41Ga5.72Pu30.05U0.28,9.0,original
C10.41Ca6.02,9.0,original
Ba8.19Si15.36,9.0,original
Si0.25,9.0,original
As0.65Pb3.13,9.0,original
B4.29Hf1.9Mo2.1,9.0,original
Bi0.54Pb1.67,9.0,original
Bi0.63Pb1.51,9.0,original
Mo0.37Re0.81,9.0,original
Co0.86Ga1.1V2.15,9.0,original
Au7.67Nb3.44,9.0,original
Ti3.35,9.0,original
B1.62Ni4.79Th3.56,9.0,original
C0.15Mg3.17Ni7.28,9.0,original
Mo7.34Pb3.13S7.66Se0.54,9.0,original
Nb0.97Ta0.42,9.0,original
ReV0.17,9.0,original
P1.68Ru2.65Zr3.7,9.0,original
Bi6.54Te7.36,9.0,original
P1.78Pt7.15Sr1.46,9.0,original
Fe1.11Te2.07,9.0,original
Ir0.41Rh1.04Se1.15,9.0,original
Sn0.78Ta15.96,9.0,original
H13.19Th3.56,9.0,original
Cu0.13La1.62Nd1.84O0.48Sr0.14,9.0,original
Nb0.14Ta0.53Ti2.63,9.0,original
Hf4.89Nb0.47,9.0,original
Cu0.13La2.32O0.48,9.0,original
Cu0.13La1.8Nd1.84O0.48,9.0,original
Li8.41O0.48Ti7.83,9.0,original
C0.24Ni2.3Th1.74Y0.85,9.0,original
Ag4.11Mo4.84S5.42,9.0,original
B4.29Mo1.97Nb0.21,9.0,original
Be21.75Mo0.6Re0.54,9.0,original
Bi0.22Pb2.29,9.0,original
C0.12La1.11,9.0,original
Nb3.63Sn0.34,9.0,original
Re1.03W1.37,9.0,original
Tc8.62V0.18,9.0,original
V0.42Zr1.39,9.0,original
Al0.98Mo0.97Nb2.49,9.0,original
Nb0.15Zr2.75,9.0,original
C10.41Cs9.22Na7.87,9.0,original
B1.08Be0.53Mg3.17,9.0,original
B3.4Ru1.53Th12.33Tm7.72,9.0,original
B1.62Er6.49Ni4.79Tb2.05,9.0,original
B0.73Mo8.59Re19.25,9.0,original
,9.0,original
As1.47Ba0.64Fe1.97Rh0.35,9.0,original
Fe1.02Se0.43,9.0,original
B0.73Li14.58Pd6.02,9.0,original
Ta3.55Ti1.22,9.0,original
Mo0.87Re0.22,9.0,original
Fe1.02Se0.45,9.0,original
B0.73Nb1.1,9.0,original
La3.98S4.3,9.0,original
C0.24Cl4.05I15.39Y4.44,9.0,original
B3.4Er7.49Rh7.17,9.0,original
B3.4Er6.02Ho2.24Rh7.17,9.0,original
Ge9.94La0.97Pt9.58,9.0,original
Fe1.02Se0.53,9.0,original
As3.12Ba1.72Fe2.2Ti8.52,9.0,original
Cu0.11La2.3O0.48,9.0,original
Cu0.13La2.1Nd0.84O0.48,9.0,original
Ba7.77Si15.36,9.0,original
Bi0.63Cd1.43Pb0.7,9.0,original
C0.41Er1.45Th6.49,9.0,original
C0.41Er3Th5.76,9.0,original
Ge0.12Nb3.63Sn0.54,9.0,original
Bi0.63Cd2.91Pb0.7,9.0,original
B1.62Ni4.54Y2.04,9.0,original
B1.62Dy0.97Ho9.87Ni4.79,9.0,original
Mg3.17Ni7.28,9.0,original
In1.68La3.95,9.0,original
Ga1.1Nb3.63,9.0,original
Fe1.02Te2.2,9.0,original
B1.62Zr3.51,9.0,original
Fe0.96Se0.11Te1.63,9.0,original
Bi3.16Se1.77,9.0,original
As0.65Nb1.1Si0.25,9.0,original
As0.65F1.35Fe0.92La1.11Zn0.13,9.0,original
Bi3.16Eu6.81F20.82S4.3Sr3.22,9.0,original
Ta0.85Ti2.63,9.0,original
As1.47Ba0.64Fe1.73Ru1.11,9.0,original
Bi0.12Pb2.48,9.0,original
Nb0.94Ta0.58,9.0,original
B1.62Mo0.87,9.0,original
B1.62Mg3.17,9.0,original
Ge9.94Pr0.75Pt9.58,9.0,original
Fe1.02Se0.4,9.0,original
B1.62Mo0.9,9.0,original
Ce0.71Cu0.13Gd6.32O0.48Pr0.86,9.0,original
Cu0.12La2.19O0.48Sr0.14,9.0,original
C0.41Er4.55Th5.03,9.0,original
W2.32,9.0,original
Re0.69W2.59,9.0,original
Ga0.81V2.32,9.0,original
Mn5.92Si0.25V1.92,9.0,original
B1.62Ni4.79Tb4.13Y1.32,9.0,original
Nb0.85,9.0,original
Co0.26Ga0.15Nb0.77,9.0,original
B1.62Gd1.7Ni4.79Y1.56,9.0,original
Nb1.04,9.0,original
B1.62Ru2.65Sc0.94Y1.56,9.0,original
B2.06Mo1.1,9.0,original
Ga1.1H1.28V2.32,9.0,original
As1.47Fe2.15Ni0.11Sr1.46,9.0,original
As1.47Ba0.64Co1.09Fe1.96,9.0,original
Mo8.59Re19.25,9.0,original
P1.59Ru2.65Zr3.7,9.0,original
Ge4.08La2.55Pt7.15,9.0,original
Au1.08Sb0.96,9.0,original
Ge0.73Sb2.38Te9.86,9.0,original
Mo1.1Te4.87,9.0,original
Ir1.21Rh0.2Se1.15,9.0,original
Ca3.54Ir6.85Sn11.37,9.0,original
Nb0.91Ta0.69,9.0,original
La0.67P22.25Rh7.17,9.0,original
Ge9.94La0.83Pr0.13Pt9.58,9.0,original
B3.4Er7.41Gd0.16Rh7.17,9.0,original
B3.4Er5.56Ho2.9Rh7.17,9.0,original
Ge9.94La0.83Pt9.58Th0.64,9.0,original
Bi0.84Pb1.1,9.0,original
B1.62Nb0.59,9.0,original
Tc12.33,9.0,original
Bi0.76Pb1.26,9.0,original
Ge9.94La0.68Pr0.21Pt9.58,9.0,original
Cu0.13La2.17O0.48Sr0.16,8.0,original
Ce0.71Cu0.13Eu12.69O0.48,8.0,original
Bi3.16Cu0.13O1.03Sr3.22,8.0,original
Cu0.13La2.37O0.48,8.0,original
Cu1.08Fe0.38O1.29Sr3.22Y1.85,8.0,original
La2.26Ni0.68O0.48,8.0,original
Bi3.16Cu0.13O1.15Sm4.73Sr1.99,8.0,original
C10.41Sm20.65,8.0,original
Ce4.01Cr0.11Cu0.76O1.83Sr3.22Y2.76,8.0,original
Ce0.71Cu0.13Nd9.09O0.48,8.0,original
Ce0.71Cu0.1Nd9.09O0.48,8.0,original
Ba1.35Cu1.39La1.47O1.31,8.0,original
Bi3.16Cu0.13O1.13Sr3.22,8.0,original
Ce0.71Cu0.13Nd7.24O0.48Tb5.25,8.0,original
Ca17.22Cu14.61O10.78,8.0,original
Cu0.12La2.33O0.48,8.0,original
Cu0.13La1.8Nd1.84O0.48,8.0,original
Na1.25O0.75V1.53,8.0,original
Ba1.72Cu1.08Fe0.38O1.46Sm6.8,8.0,original
Ca2.17Cl16.44Cu0.13Na0.34,8.0,original
Ba8.19Si15.36,8.0,original
B0.73Li14.58Pd6.02,8.0,original
B4.29Mo2.22,8.0,original
Mo1.1,8.0,original
Co2.59Rh0.6Zr7.55,8.0,original
Ge0.73Ta15.96,8.0,original
In1.68Nb3.63,8.0,original
Ir0.32Zr2.74,8.0,original
Nb1.04,8.0,original
Zr2.93,8.0,original
Tc12.33,8.0,original
Nb1.1,8.0,original
Ti3.08,8.0,original
Cu1.14Mo7.34S8.78,8.0,original
B1.62Dy0.97Ho9.87Ni4.79,8.0,original
B1.62Ho10.97Ni4.79,8.0,original
C10.41H10.89K10.77N5.82Na3.91,8.0,original
C10.41Cs5.21Na7.87Rb2.8,8.0,original
Mg3.17Ni7.28,8.0,original
Mg3.17Ni6.78,8.0,original
Ba7.93Si15.36,8.0,original
B0.73La1.11Rh7.17Si0.58,8.0,original
Ga4.56Mo1.07,8.0,original
Ga4.56Mo1.05,8.0,original
As0.65Os3.03Zr3.7,8.0,original
V1.53Zr3.7,8.0,original
Ge1.57Zr3.7,8.0,original
Ga4.56Mo1.1,8.0,original
Cu0.13La2.46O0.48,8.0,original
Fe1.02Se0.37,8.0,original
Fe1.02Se0.47,8.0,original
Fe1.04Se0.54,8.0,original
Fe1.02Se0.53,8.0,original
As1.47Ba0.64Co0.36Fe2.03Zn0.17,8.0,original
Au0.69Sb1.02,8.0,original
As1.47Ba0.64Co0.46Fe2.1Mn0.38,8.0,original
Ir6.85Sc25.01Si3.27,8.0,original
Br22.17Cu0.13LiSr3.22,8.0,original
F0.15Fe1.02La1.11P1.78,8.0,original
As1.47Ba0.41Fe2.3Na0.82,8.0,original
As1.47Ba0.46Fe2.3K0.8,8.0,original
Ge9.94La1.11Pt9.58,8.0,original
As1.47Ba0.64Co1.02Fe1.98,8.0,original
Fe1.02Se0.17Te1.38,8.0,original
Ba1.72Cu1.39O1.28Pr0.13Yb7.91,80.0,original
Ba1.18Ca0.43Cu1.39La1.11O1.3,80.0,original
Ba0.91Ca0.74Cu1.39La1.11O1.3,80.0,original
Ba1.72Cu1.39Er6.49Hf1.4O1.26,80.0,original
Ba1.72Cu1.32O1.31Y2.04,80.0,original
Bi6.54Ca1.79Cu2.02O3.82Sr4.98Y3,80.0,original
Bi3.16Ca1.3Cu0.76O1.59Sr2.87,80.0,original
Ba1.51Cu2.02O1.59Y2.04,80.0,original
Ba1.72Cu1.39O1.26Tm7.72,80.0,original
Ba1.02Ca0.3Cu1.39La1.47O1.36,80.0,original
Ba1.69Cu2.02O1.59Y2.04,80.0,original
Ba1.72Cu1.39O1.3Y1.44,80.0,original
Bi1.47Ca0.55Cu0.76O1.59Pb3.13Sr3.22Y0.61,80.0,original
Ba0.64Cu1.39Dy10.45O1.28Sr1.46,80.0,original
Ba1.72Cu1.39Er6.49O1.29,80.0,original
Ba1.72Cu1.39Gd7.14Hf1.9O1.25,80.0,original
Ba1.72Cu2.02O1.59Y1.98,80.0,original
Ba1.72Ca0.18Cu2.02O1.59Y1.32,80.0,original
Ba1.14Cu2.02O1.59Sr0.65Y2.04,80.0,original
Ba1.72Cu1.39Eu6.12O1.3,80.0,original
Ba1.72Cu1.27Ni0.31O1.31Y2.04,80.0,original
Ba0.64Cu1.39O1.28Pr0.13Sr1.46Y1.56,80.0,original
Ba1.72Cu2.02O1.59Y2.02,80.0,original
Ba1.72Cu1.39O1.3Sm6.8,80.0,original
Bi6.54Ca1.3Cu2.02O3.82Sr4.98Y3.96,80.0,original
Ba1.72Cu1.39O1.21Y2.04,80.0,original
Ba1.72Cu2.02Er7.57O1.59,80.0,original
Ba1.72Cu1.39O1.17Y1.8,80.0,original
Ba1.72Cu1.28Ga0.16O1.31Y2.04,80.0,original
Ba0.97Ca0.36Cu1.39La1.47O1.35,80.0,original
Ba0.91Ca0.43Cu1.39La1.47O1.35,80.0,original
Ba1.72Cu2.02Ho10.97O1.59,80.0,original
Ba1.72Cu1.39O1.31Y1.68,80.0,original
Ba1.72Cu2.02O1.59Tm7.64,80.0,original
Ba1.78Cu0.15Hg6.66O0.5,80.0,original
Ba1.72Cu1.37O1.3Y2.04,80.0,original
Ba1.72Cu1.39O1.26Y2.04,79.0,original
Ba1.29Cu2.02O1.56Sr0.4Y2.04,79.0,original
Ba0.86Cu2.02O1.56Sr1.11Y2.04,79.0,original
Ba1.61Cu2.02O1.54Y1.8,79.0,original
Bi2.49Ca1.05Cu0.76Nd1.84O1.64Pb1.18Sr2.52,79.0,original
Bi3.16Ca0.68Cu0.76I10.24O1.59Sr3.22Y0.37,79.0,original
Ca0.29Cu1.39O1.59Pb6.37Sr3.22Y1.11,79.0,original
Ba0.64Cu1.39O1.3Sr1.46Y2.04,79.0,original
Ba0.64Cu1.39Ho10.97O1.3Sr1.46,79.0,original
Ba1.72Cu2.02O1.59Y2.04,79.0,original
Ba1.72Cu1.32O1.31Y2.04,79.0,original
Ba2.26Ca1.05Cu3.28La3.26O3.31,79.0,original
Ba2.15Ca1.3Cu3.28La3.12O3.29,79.0,original
Ba1.72Cu1.39O1.27Y1.56,79.0,original
Ba1.72Cu2.02O1.59Tm7.72,79.0,original
Ba2.59Ca1.55Gd6.23La2.69O3.96,79.0,original
Ba1.29Ca0.24Cu1.39O1.18Sr0.4Yb6.41,79.0,original
Ba1.72Cu1.39O1.28Y1.68,79.0,original
Ba2.59Ca1.55Cu3.91La2.69O3.94Y1.32,79.0,original
Ba1.72Cu2.02Ho10.97O1.59,79.0,original
Ca1.05Cu0.76Gd4.42O1.31Sr2.34Tl4.41,79.0,original
Ba1.72Ca2.29Cu3.28Er7.65La1.11O3.3,79.0,original
Ba1.72Ca1.05Cu2.65Gd4.42La1.83O2.68,79.0,original
Ba1.72Ca2.29Cu3.28Gd8.95La1.11O3.29,79.0,original
Ba1.72Cu1.36Eu6.81O1.25,79.0,original
Ba1.72Cu1.36O1.31Y2.04,79.0,original
Ba1.4Cu1.39Lu2.95O1.3Sr0.22,79.0,original
Ba1.18Ca0.3Cu1.39La1.26O1.33,79.0,original
Ba1.56Co0.55Cu1.3O1.32Y2.04,79.0,original
Ba1.72Ca1.05Cu2.65La1.83Nd2.34O2.59,79.0,original
Ba1.72Cu1.39La0.97O1.33,79.0,original
Ba1.72Ca3.54Cu2.02F8.26O1.7,79.0,original
Ba1.72Cu2.02O1.59Sc0.19Y1.92,79.0,original
Ba1.72Cu2.02O1.59Yb9.91,79.0,original
Ba1.02Ca0.3Cu1.39La1.47O1.35,79.0,original
Ba1.72Cu1.39Er6.1Hf1.9O1.25,79.0,original
Bi3.16Ca1.42Cu0.76O1.65Sr2.69,79.0,original
Ba1.72Cu1.39Nd4.84O1.27,79.0,original
Ba1.08Cu2.02O1.54Sr0.75Y2.04,79.0,original
Bi3.16Ca1.05Cu0.76O1.65Sr3.22,79.0,original
Ba1.61Cu1.39O1.33Sm7.5,79.0,original
Bi3.16Ca1.67Cu0.76O1.64Sr2.34,79.0,original
Ca0.43Cu1.39Ho5.45O1.59Pb6.37Sr3.22,79.0,original
Ba1.29Cu1.39Nd4.84O1.23Sr0.4,79.0,original
Bi2.66CaCu0.76O1.61Pb0.86Sr3.22,79.0,original
Ba1.51Nd4.84O1.26,79.0,original
Ba0.21Ca0.55Cu1.39La0.25Nd1.84O1.23,79.0,original
Ba1.72Cu1.39O1.3Y1.8,79.0,original
Ba1.72Cu1.3Ga0.12O1.31Y2.04,79.0,original
Ca0.43Cu1.39O1.59Pb6.37Sr3.22Y0.85,79.0,original
Ba1.72Cu1.39O1.32Y1.56,79.0,original
Ca1.05Cu0.76O1.31Pb1.51Sr3.22Tl2.14,79.0,original
Ba1.72Cu1.39O1.31Y1.73,79.0,original
Ba1.72Cu2.02Er7.65O1.59,79.0,original
Ba1.72Cu2.02O1.56Y2.04,79.0,original
Ba1.72Co0.14Cu1.36O1.31Y2.04,79.0,original
Ba1.72Cu1.37O1.31Y2.04,79.0,original
Ba1.72Cu1.39Er7.65O1.25,79.0,original
Ba1.72Cu1.39Gd8.95H4.75O1.28,79.0,original
Ba1.72Cu0.13Hg7.24O0.49,79.0,original
Ba1.72Cu1.39O1.28Y1.56,79.0,original
Bi3.5Ca1.05Cu0.76O1.59Sr2.73,79.0,original
Ba1.72Cu1.39O1.28Y2.04,79.0,original
Ba0.64Cu1.25O1.31Sr1.74Y1.66,79.0,original
Ba3.45Cu3.28La0.25O3.24Y4.44,78.0,original
Ba1.51Cu1.39O1.3Y2.04,78.0,original
Ba1.61Cu2.02O1.56Y2.04,78.0,original
Ba1.51Cu2.02O1.56Y2.04,78.0,original
Ba1.72Cu2.02Er7.65O1.59,78.0,original
Ba3.88Cu3.91O3.5Y4.44,78.0,original
Bi3.16Ca1.05Cu0.76O1.65Sr3.22,78.0,original
Ba1.72Cu1.39Gd8.95O1.31,78.0,original
Ba0.64Cu1.39Er7.65O1.3Sr1.46,78.0,original
Ba1.72Cu1.39O1.26Y2.04,78.0,original
Ba2.13Ca1.36Cu3.28La3.09O3.28,78.0,original
Ba1.72Ca0.18Cu1.39O1.25Y1.32,78.0,original
Ba1.72Cu2.02O1.59Y2.02,78.0,original
Ba0.1Cu1.27O1.37Sr2.34Ti0.72Y2.04,78.0,original
Ba1.72Cu1.39Lu2.61O1.22,78.0,original
Ca0.43Cu1.39F4.13O1.41Pb6.37Sr3.22Y0.85,78.0,original
Ba1.29Ca0.24Cu1.39O1.18Sr0.4Yb6.41,78.0,original
Ba1.72Cu2.02O1.59Tb1.35Y1.8,78.0,original
Ba0.1Cu1.39O1.31Sr2.34Y2.04,78.0,original
Ba1.72Cu2.02O1.59Y2.04,78.0,original
Ba1.72Cu2.02Eu1.62O1.59Y1.44,78.0,original
Ca1.05Cu0.76Er3.78O1.31Sr2.34Tl4.41,78.0,original
Ba1.72Ca1.05Cu2.65Er3.78La1.83O2.68,78.0,original
Ba1.72Ca0.55Cu2.4La2.12Nd1.34O2.68,78.0,original
Ba1.72Ca1.05Cu2.65La1.83Nd2.34O2.67,78.0,original
Ba1.72Cu1.39O1.23Y1.68,78.0,original
Ba1.72Ca0.68Cu0.76Gd2.61O1.31Tl4.41,78.0,original
Ba1.72Cu0.13Hg7.24O0.52,78.0,original
Ba1.51Cu1.39O1.3Y1.56,78.0,original
Ba1.4Ca0.18Cu1.39La0.11O1.3Y1.32,78.0,original
Ba1.29Ca0.3Cu1.39La0.25O1.3Y1.09,78.0,original
Ba1.72Cu0.13Hg7.24O0.56,78.0,original
Ba1.72Cu1.37O1.26Sm6.8,78.0,original
Ba1.72Cu1.36Dy10.45O1.28,78.0,original
Ba1.18Ca0.43Cu1.39La1.11O1.32,78.0,original
Ba1.72Cu0.13F5.12Hg7.24O0.48,78.0,original
Ba1.72Cu1.39O1.24Y2.04,78.0,original
Bi3.16Ca1.05Cu0.75O1.59Sr3.22,78.0,original
Ba1.72Cu1.39O1.29Y1.8,78.0,original
Ba1.72Ca1.05Cu2.65La1.83Nd2.34O1.35,78.0,original
Ba1.72Cu1.39O1.23Tm7.72,78.0,original
Bi0.12Ca0.68Cu0.76Nd1.34O1.31Pb1.18S0.28Sr3.22,78.0,original
Cu1.24Mo0.16O1.46Sr3.22Y2.04,78.0,original
Ba1.72Cu1.39O1.3Pr0.13Tm6.16,78.0,original
Ba1.18Cu1.25O1.31Sr0.75Y1.42,78.0,original
Ba1.72Cu1.39O1.25Y2.04,78.0,original
Ba1.02Ca0.3Cu1.39La1.47O1.35,78.0,original
Ba1.72Cu2.01O1.59Y2.04,78.0,original
Ba1.72Ca0.24Cu1.39Gd4.42O1.2,78.0,original
Ba1.72Cu1.39O1.3Y1.32,78.0,original
Bi3.16Ca1.55Cu0.76O1.64Sr2.52,78.0,original
Ba1.72Cu2.02O1.54Y2.04,78.0,original
Ba1.72Cu2O1.59Y2.04,78.0,original
Ba1.72Co0.68Cu1.28Er6.72O1.29,78.0,original
Ba1.72Co0.68Cu0.94Er6.72O1.29,78.0,original
Ca0.55Cu0.76Fe0.38Hg3.57O1.22Sr3.22Y0.61,78.0,original
Ba1.64Cu1.39Nd5.24O1.08,78.0,original
Ba2.8Ca0.92Cd1.13Cu3.91La3.98O3.99,78.0,original
Ba1.72Cu2.02Ho10.97O1.59,78.0,original
Ba1.72Cu1.39Dy8.87O1.28,78.0,original
Ba1.72Cu2.02Ho10.64O1.59,78.0,original
Ba1.56Cu1.39O1.3Sm7.84,78.0,original
Ba1.72Cu1.32O1.31Y2.04,78.0,original
Ba1.51Cu1.39O1.33Y2.04,78.0,original
Ba1.72Cu1.39Er5.32Hf1.4O1.26,78.0,original
Ba1.72Cu1.3Ni0.18O1.3Y2.04,78.0,original
Ba1.72Cu2.02Dy10.45O1.59,78.0,original
Ba1.72Cu1.32Ni0.26O1.31Y2.04,78.0,original
Ba1.72Cu1.39O1.3Pr0.13Y1.32,78.0,original
Ba1.72Cu1.39O1.3Pr0.13Y1.21,78.0,original
Ba0.64Cu1.39Dy10.45O1.28Sr1.46,78.0,original
Ba1.72Cu1.39Eu6.81O1.25,77.0,original
Ba1.72Cu2.02Ho10.97O1.59,77.0,original
Ba1.72Cu1.37O1.27Y2.04,77.0,original
Ba0.86Ca0.18Cu1.39O1.69Pb2.48Sr1.46Y1.32,77.0,original
Bi3.16Ca1.05Cu0.76Li1.37O1.59Sr2.87,77.0,original
Bi3.16Ca0.92Cu0.76O1.59Sr3.22,77.0,original
Ba1.72Cu2.02O1.59Y2.04,77.0,original
Ba1.72Cu1.39O1.23Y2.04,77.0,original
Ba1.72Cu2.02O1.59Y1.92,77.0,original
Cr0.15Cu0.76O2.15Sr6.74Tl2.91,77.0,original
Ba1.72Cu1.36O1.29Ti0.12Y2.04,77.0,original
Al0.98Ca2.29Cu1.39O2.12Sr3.22,77.0,original
Ba0.64Cu1.39Nd3.84O1.25Sr1.46,77.0,original
Ba0.64Cu1.38O1.29Sr1.46Y2.04,77.0,original
Ca2.04Cu1.39Ge0.32O1.95Sr3.22Y0.13,77.0,original
Ca1.92Cu1.39Ge0.23O1.95Sr3.22Y0.37,77.0,original
Ba1.29Ca0.1Co0.96Cu1.24Er5.79O1.28Sr0.4,77.0,original
Cu0.76O1.4Sr3.22WY2.04,77.0,original
Ba1.29Ca0.24Cu1.39O1.21Sr0.4Yb6.41,77.0,original
Ca1.05Cu0.76O0.89Sr3.22,77.0,original
Ba1.72Cu1.39O1.26Y2.04,77.0,original
Ba1.72Cu1.39O1.27Y2.04,77.0,original
Ba2.8Ca1.05Cu3.82La3.26O3.99Y0.85,77.0,original
Ba1.72Cu2.02Eu3.35O1.59Y0.85,77.0,original
Ba1.72Cu1.36Ho10.97O1.3,77.0,original
Ba1.4Cu1.39Lu2.78O1.29Sr0.22,77.0,original
Ba1.72Cu1.37O1.31Y2.04,77.0,original
Ba1.18Ca0.3Cu1.39La1.26O1.34,77.0,original
Ba1.72Cu0.13Hg5.77Nd0.84O0.56,77.0,original
Ba1.4Cu1.39La0.11O1.32Y2.04,77.0,original
Bi3.16Ca1.05Cu0.75O1.59Sr3.22,77.0,original
Ba1.72Ca0.55Cu2.4La2.12Nd1.34O1.35,77.0,original
Ba1.72Ca3.54Cu2.02F8.26O1.7,77.0,original
Ba1.72Cu1.26Ga0.19O1.31Y2.04,77.0,original
Ba1.72CoCu1.24O1.32Y1.8,77.0,original
Ba1.13Ca0.18Cu1.39La1.47O1.36,77.0,original
Ba1.72Cu2.02Ho10.86O1.59,77.0,original
Ba1.56Cu1.39Nd5.59O1.3,77.0,original
Ba1.51Cu2.02O1.59Y2.04,77.0,original
Ba1.72Cu1.39H4.13O1.29Y2.04,77.0,original
Ba1.72Cu1.39O1.23Y1.56,77.0,original
Bi2.66Ca0.92Cu0.76Nd0.35O1.67Pb0.86Sr3.22,77.0,original
Ba1.72Cu1.36O1.3Y2.04,77.0,original
Ba1.72Cu1.39O1.24Y2.04,77.0,original
Ba1.29Cu2.02O1.59Sr0.4Y2.04,77.0,original
Cu1.39Dy10.45O1.59Pb6.37Sr3.22,77.0,original
Bi3.16Ca2.17Cu0.76O1.65Sr1.63,77.0,original
Bi3.16Ca2.04Cu0.76O1.65Sr1.81,77.0,original
Bi3.16Ca1.92Cu0.76O1.64Sr1.99,77.0,original
Ba1.72Cu1.39Er6.1O1.29,77.0,original
Ba0.64Cu1.39Gd8.95O1.3Sr1.46,77.0,original
Ba1.72Cu1.39O1.3Pr0.13Y1.44,77.0,original
Ba1.72Cu1.36O1.27Y2.04,77.0,original
Bi3.16Ca2.29Cu0.76O1.66Sr1.46,77.0,original
Ba1.72Cu1.39Er6.1O1.31Pr0.13,77.0,original
Ca0.43Cu1.39Ho0.47O1.59Pb6.37Sr3.22,77.0,original
Ba0.64Ca1.05Cu1.39La1.11O1.31,77.0,original
Ba1.51Cu1.39O1.31Y2.04,77.0,original
Ba1.72Cu2.02O1.59Y1.44,77.0,original
Ba1.72Cu1.33O1.29Y2.04,76.0,original
Bi3.16Ca0.92Cu0.76O1.59Sr3.22,76.0,original
Ba1.72Cu2.02Ho10.97O1.59,76.0,original
Bi1.47Ca0.24Cu0.76O1.59Pb3.13Sr3.22Y1.21,76.0,original
Ba1.72Cu1.3O1.32Y2.04,76.0,original
Bi3.16Ca1.05Cu0.76O1.67Sr3.22,76.0,original
Bi3.16Ca0.55Cu0.76O1.69Sr3.22Y0.61,76.0,original
Ba1.72Cu2.02Dy10.45O1.59,76.0,original
Ba0.64Ca1.05Cu1.39La1.11O1.27,76.0,original
Ba1.72Cu1.39La1.11O1.28,76.0,original
Al0.98Ca2.29Cu1.39O2.18Sr3.22,76.0,original
Ca0.39Cu1.39O1.59Pb6.37Sr3.22Y0.92,76.0,original
Ba1.72Cu2.02O1.59Y2.04,76.0,original
Ba1.61Cu1.39Nd5.34O1.29,76.0,original
Ba1.72Ca2.29Cu1.39La2.55O3.19,76.0,original
Ba3.88Cu3.91O3.47Pr0.13Tm13.94,76.0,original
Ba1.29Cu1.39O1.27Sr0.4Yb8.41,76.0,original
Ba1.29Ca0.3Cu1.39O1.2Sr0.4Yb5.91,76.0,original
Cu0.76N0.49O1.31Pb1.51Sr6.74Tl2.14,76.0,original
Cu0.76N0.49O2.15Pb1.51Sr6.74Tl2.14,76.0,original
Cr0.13Cu0.13O0.75Sr2.69Tl4.41,76.0,original
Ca2.04Cu1.39O2P0.85Sr3.22Y0.13,76.0,original
Ba1.18Ca0.43Cu1.39La1.11O1.27,76.0,original
Ba1.13Ca0.18Cu1.39La0.47O1.36,76.0,original