formula,Tc,type
Ba1.72Cu1.39Dy10.45O1.31,50.0,original
Ba1.72Cu1.37O1.23Y2.04,50.0,original
Ba1.72Cu0.76Hg10.19O1.54Tl2.6Y1.56,50.0,original
Ba0.64Ca0.43Cu1.39La1.83O1.31,50.0,original
Ba1.72Cu1.28Er7.65O1.29Zn0.34,50.0,original
Ba1.72Cu1.3Er7.65O1.3Zn0.21,50.0,original
Ba1.72Cu1.39O1.17Tm7.72,50.0,original
Ba1.29Cu1.39Eu4.04O1.33Sr0.4,50.0,original
Cu0.13Hg5.41Mo0.16O0.48Sr3.22,50.0,original
Ba1.18Cu1.39La0.9O1.27Sr0.58,50.0,original
Ba1.72Ca1.05Cu2.34La1.83Mo0.47Nd2.34O2.46,50.0,original
Cu0.76Fe1.02O1.5Sr3.22Y2.04,50.0,original
Ca1.05Cu1.36O1.31Pb1.51Sr3.22Tl2.14,50.0,original
Ba0.86Cu0.13O0.29Sr1.11,50.0,original
C10.41,50.0,original
Al8.33Fe4.86Yb9.91,50.0,original
Bi0.12Cu0.76La1.54O0.97Pb0.86Sr1.81,50.0,original
As0.65F0.83Fe1.02Nd4.84,50.0,original
As0.65F0.41Fe1.02Tb13.87,50.0,original
As0.65F0.93Fe1.02Sm6.8,50.0,original
As0.65F1.06Fe1.02Pr0.75,50.0,original
As0.65Ca0.3F5.12Fe1.02Pr0.44,50.0,original
Ca6.02O2.15P3.64,50.0,original
As0.65Fe1.02H0.73Sm6.8,50.0,original
Ca0.8Cu0.76Er2.23O1.31Sr3.22Tl3.05,50.0,original
Ca0.8Cu0.76La0.11O1.31Sr3.22Tl3.05,50.0,original
Fe1.02Se0.42,6.0,original
Cu0.13La2.35O0.48,6.0,original
Hf1.5Ta4.39,6.0,original
La1.11Sn2.54,6.0,original
B3.4Er0.76Ho9.76Rh7.17,6.0,original
Ga0.2Mn0.84Nb0.74,6.0,original
B10.52Zr3.67,6.0,original
Mg3.17Ni7.25,6.0,original
Ag2.86Mo4.84Se2.99,6.0,original
Ag2.86Mo3.59Se2.38,6.0,original
Fe1.02La1.11P1.59,6.0,original
Dy10.45Ir6.85Sc19.99Si3.27,6.0,original
In1.23Sn0.11,6.0,original
B3.4Er1.14Ho9.2Rh7.17,6.0,original
Li7.24,6.0,original
Zr3.47,6.0,original
Zr3.43,6.0,original
La1.1Sn2.54,6.0,original
Cu0.13La2.36O0.48,6.0,original
Fe1.02S0.17Se0.36,6.0,original
Co3.96Zr7.55,6.0,original
Hf9.88Re8.86,6.0,original
B1.62Gd2.25Ni4.79Y1.42,6.0,original
Na0.34Pb2.81,6.0,original
Pb3.13S0.95Te2.37Yb9.91,6.0,original
Nb0.47Ta2.56,6.0,original
Ba0.32Rb1.65Sb2.38Ti8.52,6.0,original
La1.11Ru7.91Si0.58,6.0,original
B1.62Dy3.6Ho7.1Ni4.79,6.0,original
B1.62Dy5.18Ho5.45Ni4.79,6.0,original
Pd1.88S5.42Ta10.6,6.0,original
Hf5.89Lu1.25P2.8S0.33,6.0,original
P2.24Se0.39Zr3.7,6.0,original
Ce0.71Cu0.13Gd8.95Nd4.09O0.48,6.0,original
Hg7.24Pb6.37Sm6.8,6.0,original
Al3.08Os3.03,6.0,original
B4.29Nb2.11Zr0.62,6.0,original
Ga1.1Sb1.15,6.0,original
V0.15Zr2.7,6.0,original
B1.62Co0.41Ni4.64Tm7.72,6.0,original
B1.62Er5.91Ni4.79Tb3.09,6.0,original
Cu0.13Mo7.34Se4.83,6.0,original
O0.2W5.25,6.0,original
Ir6.85Lu16.5Sc0.44Si3.27,6.0,original
Mo0.41Re0.76,6.0,original
Re2.92Zr3.7,6.0,original
Zr3.45,6.0,original
Mo3.59Se2.38,6.0,original
La1.11Os6.17,6.0,original
Dy10.45Ga6.87,6.0,original
Ca3.54Co18.05Ge10.78,6.0,original
Nb6.17Si0.85,6.0,original
As0.65Co0.55Fe0.83Pr0.75,6.0,original
Al5.18Ba8.09Eu0.58Si13.68,6.0,original
Bi4.85Sr1.46,6.0,original
LuP1.78S0.95Zr2.45,6.0,original
Ce5.63Ru5.45,6.0,original
Mo0.26Re0.94,6.0,original
P2.24Se0.39Zr6.97,6.0,original
Mo7.34Se3.61Te4.87,6.0,original
Co3.73Zr7.55,6.0,original
Ce4.91Ru5.45,6.0,original
Bi1.47In3.49,6.0,original
Ru5.45Th3.2,6.0,original
Hf4.89Lu1.59P2.61S0.45,6.0,original
B0.73Mo2.35,6.0,original
Hf1.3Re1.22,6.0,original
B1.62Dy3.08Ho7.66Ni4.79,6.0,original
B1.62Dy6.23Ho4.34Ni4.79,6.0,original
V0.59,6.0,original
Ba0.48K0.69Sb2.38Ti8.52,6.0,original
Hg7.24Pb6.7,6.0,original
Cu0.13La1.11,6.0,original
Ga1.1N5.82,6.0,original
Al0.56B1.62Mg1.2,6.0,original
Al2.03Ba8.19Si14.69,6.0,original
Mo3.59Te7.36Tl4.41,6.0,original
Ga1.1La3.98,6.0,original
As0.21Ce5.81F0.15Fe1.02P0.9,6.0,original
Mo7.34S0.17Se4.65,6.0,original
Co3.5Ni0.31Zr7.55,6.0,original
Ce4.61Pr0.13Ru5.45,6.0,original
Ir1.62Mo3.59Nb1.1Pt2.29,6.0,original
Sn0.78Ta15.96,6.0,original
Lu0.74P1.78S0.95Zr2.74,6.0,original
Ce0.71Cu0.13La1.4Nd3.09O0.48,6.0,original
Cu0.11La2.3O0.48,6.0,original
Hg7.24Pb6.37,6.0,original
Ir6.85Lu16.84Si3.2,6.0,original
B1.71Nb1.1,6.0,original
Al2.03Ca1.05Si0.25,6.0,original
Be4.89Ga1.1,6.0,original
Mo0.87Re0.22,6.0,original
Pb1.83Tl1.69,6.0,original
Rh30.87S16.61,6.0,original
Ru1.15V0.37,6.0,original
Zr3.7,6.0,original
Sb1.15Ti12.85,6.0,original
B1.62Ho10.97Ni4.79,6.0,original
Au4.57B1.97Pt3.5Y2.04,6.0,original
Mo9.84P9.22,6.0,original
La1.11Mo7.34S8.78,6.0,original
Ir5.31Lu16.84Rh1.48Si3.27,6.0,original
Br17.73C0.24I4.07Y4.44,6.0,original
B5.18Y1.56,6.0,original
Ga1.1Se4.83Ta21.32,6.0,original
B0.73Hf0.51Mo2.27,6.0,original
F0.2Fe1.02La1.11P1.78,6.0,original
B14.7Ir32.96Mg30.44,6.0,original
Bi1.47S0.95,6.0,original
B1.62Si0.25W26.5,6.0,original
B1.62Mo6.09Si0.25,6.0,original
As1.47Ba0.64Co0.23Fe2.2,6.0,original
As0.65Co0.66Fe0.8Sm6.8,6.0,original
Fe1.02La1.11P1.78,6.0,original
B5.18Os24.99Y6.83,6.0,original
As2.3Cr1.47K10.77,6.0,original
Mo1.1,6.0,original
S0.95Sn0.78,6.0,original
Ge9.94In1.68Ru11.04Y16.4,6.0,original
Ca1.05Ir3.36,6.0,original
Ag4.11Se1.03Sn0.78,6.0,original
Co4.18Zr7.55,6.0,original
P1.78Pd1.73Pt4.96Sr1.46,6.0,original
Lu1.59P1.78S0.95Zr1.77,6.0,original
Ir5.28Lu16.84Rh1.52Si3.27,6.0,original
B1.62Dy6.23Ni4.79Tm3.05,6.0,original
Eu1.27Ge9.94Pr0.59Pt9.58,6.0,original
Nb0.85V0.1,6.0,original
P2.71Se0.23Zr3.7,6.0,original
Tc3.67W3.65,6.0,original
Ti0.29V0.66,6.0,original
Ca3.54Co18.05Sn11.37,6.0,original
Ce0.11Ge9.94Pr0.71Pt9.58,6.0,original
Al3.08Ba8.19Si14.35,6.0,original
Ca1.67Ir6.85Sn11.37Sr2.34,6.0,original
Bi1.47K4.77O0.2,6.0,original
Re1.43Ti4.19,6.0,original
B1.62Mo1.05,6.0,original
Ce0.11Ge9.94La1.04Pt9.58,6.0,original
Ce0.18In1.68La3.89,6.0,original
Ir5.87Lu16.84Rh0.9Si3.27,6.0,original
Nb0.35Ta3.07,6.0,original
Ir3.36Th3.56,6.0,original
Sn0.5,6.0,original
O0.75Re1.43Ti4.19,6.0,original
Hf5.99Ta1.97,6.0,original
Ba0.21Rb2.22Sb2.38Ti8.52,6.0,original
Ce0.71Cu0.13Eu12.38Gd0.31O0.48,6.0,original
Mo1.1S2.07,6.0,original
Hg7.24Pb5.72,6.0,original
Hg7.24Pb6.37Sm3.34,6.0,original
B0.45Mg0.9,6.0,original
Al0.14B4.29Mo2.1,6.0,original
Be7.87Ga1.1,6.0,original
Be21.75Ga1.1,6.0,original
Bi1.47Ru2.65,6.0,original
Ir3.36Sr1.46,6.0,original
Ru0.13Zr3.31,6.0,original
Ru1.25W2.59,6.0,original
Ta5.03,6.0,original
B5.18La1.11,6.0,original
Nb0.95,6.0,original
B1.62Mn4.21Ni4.04Y2.04,6.0,original
Mo0.32Re0.87,6.0,original
Ir5.8Lu16.84Rh0.97Si3.27,6.0,original
Cl24.7Mo7.34Se2.99,6.0,original
Bi1.47,6.0,original
B14.08Ir32.96Mg39.31,6.0,original
Ru8.24Si1.26Zr7.55,6.0,original
As0.65FeLi7.24,6.0,original
Al4.13Ba8.19Si14.01,6.0,original
Mo6.84Ru0.97Se4.83,6.0,original
Hf4.89Lu1.59P2.8S0.33,6.0,original
Ru1.13V0.37,6.0,original
V0.73,6.0,original
Fe1.02La0.97P1.78,6.0,original
B10.52Zr3.64,6.0,original
Ge9.94Pt9.58Th2.83,6.0,original
Ir4.76Lu16.84Rh2.06Si3.27,6.0,original
Ir3.02Os0.52Th3.56,6.0,original
Os0.11Zr3.43,6.0,original
Mo0.62Os1.09,6.0,original
In1.23Pb0.7,6.0,original
B1.62Ba0.29Pt7.15,6.0,original
Fe1.01Se0.47,6.0,original
B1.62Er6.25Ni4.79Tb2.46,6.0,original
P2.24Se0.39Y0.85Zr5.63,6.0,original
Na3.91Pb9.62,6.0,original
La0.97Th0.28,6.0,original
Nb0.2Re,6.0,original
Ca2.29Cs10.49Li0.63Nb3.63O2.15,6.0,original
B1.62Dy9.92Ni4.79Tb0.66,6.0,original
Hf9.88Re2.92,6.0,original
Ce0.41Ge9.94La0.97Pt9.58,6.0,original
Ce0.71Cu0.13Nd9.09O0.48,6.0,original
Ba1.72Cu1.39Nd3.34O1.31Pr0.21,6.0,original
Mg3.17Ni7.12,6.0,original
Mo1.1S2.07Sr1.11,6.0,original
Be12.82Ga1.1,6.0,original
N1.2Th3.56,6.0,original
Ti1.16V0.42,6.0,original
Hf9.88Tc24.69,6.0,original
La1.1,6.0,original
Mg6.46Pb3.13,6.0,original
Mo0.75Pt0.54,6.0,original
Nb0.9,6.0,original
Nb,6.0,original
Hf3.9Nb0.59,6.0,original
Gd10.76Mo7.34Se4.83,6.0,original
Al0.77Ca1.05Ga0.18Si0.25,6.0,original
Ga0.53Sn0.34V2.32,6.0,original
Hf0.9Ta4.71,6.0,original
Mo0.28Re0.91,6.0,original
Mg6.46Nb1.1,6.0,original
Ge10.78Os12.44Th10.87,6.0,original
B0.73Mo2.17Ta0.63,6.0,original
Nb1.1Se1.15,6.0,original
B0.19P1.03Ru2.65Zr3.7,6.0,original
N5.82Ti4.19,6.0,original
As0.65F0.51Fe0.89Sm6.8,6.0,original
Al6.23Ba8.19Si13.34,6.0,original
Ce5.39Ru5.45Th0.17,6.0,original
Mo3.59P1.78,6.0,original
Fe1.02Se0.41,6.0,original
Mo0.11Si0.25V2.15,6.0,original
Ge9.94Pr0.72Pt9.58,6.0,original
Pb9.62Th3.35,6.0,original
Ce0.17In1.68La3.9,6.0,original
V0.71,6.0,original
Bi1.47F1.45Nd0.84S2.07Sm5.42,6.0,original
Ag3.78Se1.15Sn0.85,6.0,original
Al0.87Ca1.05Si0.28,6.0,original
Ti2.35V0.25,6.0,original
Ta0.96Zr2.93,6.0,original
As1.47Co1.41Fe1.87Sr1.46,6.0,original
Co3.73Ga0.12Zr7.55,6.0,original
Bi1.37F1.45Nd4.84S2.07,6.0,original
Cu0.13La2.45O0.48,6.0,original
Bi0.36In1.06,6.0,original
Pb9.62Th3.56,6.0,original
La3.98Ru2.65,6.0,original
Ir5.11Lu6.67Si1.59,6.0,original
Nb0.34Ta3.1,6.0,original
Pb1.57Tl2.05,6.0,original
As1.47Ba0.47Fe2.3K0.74,6.0,original
Ga0.17Mn1.28Nb0.74,6.0,original
Hf9.88Os3.03P1.78,6.0,original
B1.62Nb1.1,6.0,original
Ba0.37Na0.94Sb2.38Ti8.52,6.0,original
H3.36Pd1.94,6.0,original
Co0.77Ir6.5Lu16.84Si3.27,6.0,original
B1.62Ni4.49Tm7.72,6.0,original
Ce0.23Ge9.94Pr0.69Pt9.58,6.0,original
Bi1.47F1.45Nd2.84S2.07Sm2.65,6.0,original
Ca2.29Cs10.49Li1.95Nb3.63O2.15,6.0,original
Bi1.47F2.5Nd1.84S2.07Sm4.03,6.0,original
Ca2.29K5.32Li0.63Nb3.63O2.15,6.0,original
Li3.2Nb1.1,6.0,original
Cu0.11La2.26O0.48,6.0,original
Ca14.73Cu14.61O10.8Sr3.22,6.0,original
Cu0.13Gd8.95O1.59Ru2.51Sr3.22,6.0,original
Al0.98Ge0.73,6.0,original
Al13.59Os12.44,6.0,original
B4.29Mo1.97V0.18,6.0,original
C0.41Ho4.34Th5.76,6.0,original
N4.64Nb0.85V0.1,6.0,original
Ge0.5Nb3.99,6.0,original
Ir0.38Ti2.34,6.0,original
K2.05Mo1.1S2.07,6.0,original
Zr3.31,6.0,original
N2.74Nb1.1,6.0,original
Nb0.15Sn0.11V0.34,6.0,original
Nb1.1Sn0.78V1.53,6.0,original
Hf2.9Mo0.72,6.0,original
In5.3Sn0.78,6.0,original
Ir0.38Ti2.36,6.0,original
Ti1.74V0.35,6.0,original
Cu1.39Mo7.34S8.78,6.0,original
B1.62Zr3.7,6.0,original
Br19.39C0.24I2.52Y4.44,6.0,original
H1.02Li7.24Nb1.1,6.0,original
H1.76Li7.24Nb1.1,6.0,original
Co4.41Zr7.55,6.0,original
Al0.14V0.46,6.0,original
Ge0.11V0.46,6.0,original
Er38.62Os12.44Si4.95,6.0,original
As1.47Fe2.17Sr1.46,6.0,original
Ge0.73,6.0,original
Bi3.16Pd0.92Te7.36,6.0,original
As1.47Ba0.54Fe2.3K0.41,6.0,original
O0.2Rb1.01W5.25,6.0,original
Bi1.47La1.11Ni2.3,6.0,original
As0.21Fe1.02H0.81P0.9Sm6.8,6.0,original
B10.52Th3.31Zr0.12,6.0,original
Os3.03Si0.25Ta5.24,6.0,original
Nb1.1Te4.87,6.0,original
La1.06Sn2.54Tm0.23,6.0,original
Cr0.28Re0.54,6.0,original
Cr0.17Ga0.18V0.29,6.0,original
Rh1.43Si0.3Th3.56,6.0,original
Hf8.88N5.82,6.0,original
B0.73Li14.58Pd4.8Pt1.32,6.0,original
B10.52Zr3.54,6.0,original
Mg3.17Ni7.23,6.0,original
H1.79Nb0.8Pd0.17,6.0,original
Mo7.34S0.39Se4.53,6.0,original
V0.37Zr0.83,6.0,original
Ir3.36Lu16.84Rh3.52Si3.27,6.0,original
As1.47Pt4.72Sr1.46,6.0,original
Bi3.16Se0.54Te4.87,6.0,original
Bi1.47F4.59Nd4.84S2.07,6.0,original
Bi1.47F2.5S2.07Sm5.42,6.0,original
Mo6.72Ru1.25Se4.83,6.0,original
Bi1.47F2.5La1.11S2.07,6.0,original
Cs10.49Li0.27Nb3.63O2.15Sr3.22,6.0,original
Cs10.49Li0.63Nb3.63O2.15Sr3.22,6.0,original
Ca2.29K5.32Li2.39Nb3.63O2.15,6.0,original
Nb0.12V0.42Zr0.5,6.0,original
La1.11Ru8.02Si0.58,6.0,original
As1.47Ba0.64Fe2.25,6.0,original
Co3.5Zr7.55,6.0,original
C10.41Tb38.2,6.0,original
Cu0.13La2.39O0.48,6.0,original
Cu0.13La2.23O0.48,6.0,original
Ca2.29Cs10.49Li2.39Nb3.63O2.15,6.0,original
C0.24La0.83Ni2.3Th0.64,6.0,original
Ti1.82,6.0,original
C0.41Ho2.13Th6.49,6.0,original
C0.41Sc6.96Th2.1,6.0,original
La1.04,6.0,original
Mo7.71Pb3.13S6.54Se1.15,6.0,original
Ir1.62Ti12.85,6.0,original
In1.16S8.78V4.7,6.0,original
B3.4Rh7.17Tm7.72,6.0,original
Mo7.34Pb3.13S6.54Se1.15,6.0,original
Se0.54,6.0,original
Al0.3V0.38,6.0,original
B5.18Nd4.84Rh10.81,6.0,original
La2.55Sn4.31,6.0,original
Ge9.94Pt9.58Sr1.46,6.0,original
,6.0,original
P1.4Ru2.65Zr3.7,6.0,original
Al2.44Ca2.29Si1.46,6.0,original
F0.41Fe1.02La1.11P1.78,6.0,original
Pd1.78S5.42Ta10.6,6.0,original
Sn0.78Sr4.1,6.0,original
B1.62Nb0.97,6.0,original
Bi3.16Pd1.94,6.0,original
Bi1.47I10.24Te2.37,6.0,original
Hf0.7Ta4.81,6.0,original
Zr3.51,6.0,original
Bi1.47F1.45Nd1.84S2.07Sm4.03,6.0,original
S0.95Sc4.95,6.0,original
Bi1.42F1.45Nd4.84S2.07,6.0,original
B3.4Nd4.84Rh7.17,6.0,original
Ba0.64Ge9.94Pt9.58,6.0,original
Bi1.41F1.45Nd4.84S2.07,6.0,original
P1.78S0.95Y1.09Zr1.39,6.0,original
V0.5Zr0.73,6.0,original
P1.96Se0.48Zr3.7,6.0,original
P1.78S0.95Y0.85Zr1.77,6.0,original
Ba0.54Rb0.49Sb2.38Ti8.52,6.0,original
Mo0.47Re0.62,6.0,original
Nb0.91W0.73,6.0,original
Ti2.3V0.24,6.0,original
Sb0.22Ti3.11,6.0,original
Bi1.47F2.5Nd2.84S2.07Sm2.65,6.0,original
Bi4.85S3.19,6.0,original
Ca2.29Cs10.49Li3.28Nb3.63O2.15,6.0,original
Nb0.3Ta3.26,6.0,original
Hf9.88P2.71S0.39,6.0,original
Ba3.88Si15.36Sr6.74,6.0,original
Nb0.31,6.0,original
Ag0.57Bi1.22,6.0,original
Ge0.65,6.0,original
La3.98Te9.86,6.0,original
Ti1.59V0.34,6.0,original
Tc5.4Th1.96,6.0,original
Ti3.11V0.14,6.0,original
Sn0.78,6.0,original
In1.41,6.0,original
Ga1.1V1.49,6.0,original
Mo0.16Nb0.47Zr0.81,6.0,original
Ba0.64Si0.58,6.0,original
Mo0.78Pt0.22,6.0,original
La1.32Nb2.37Se3.08,6.0,original
As1.47Ba0.64Co0.29Fe2.09,6.0,original
Bi1.47F2.5S2.07Yb9.91,6.0,original
As1.47Ba0.48Fe2.3Na0.54,6.0,original
Ir1.62La1.11P1.78,6.0,original
La2.55Sb1.15,6.0,original
Bi1.47F1.45Nd3.84S2.07Sm1.26,6.0,original
Au3.79Ba0.64Ge9.94Pt8.37,6.0,original
Co3.5Ga0.18Zr7.55,6.0,original
As3.12Ba1.72Fe2.17Ti8.52,6.0,original
Ag3.9Se1.15Sn0.82,6.0,original
Ta0.79Zr3.04,6.0,original
Eu1.97Ge9.94Pr0.52Pt9.58,6.0,original
Bi2.32Sb0.53Se0.54Te4.87,6.0,original
Nb1.1Re4.4,6.0,original
B1.64Nb1.1,6.0,original
Pd3.98Sn0.78Y2.04,6.0,original
B1.62Er3.39Lu1.76Ru2.65,6.0,original
Ce5.27Ru5.45,6.0,original
Zr2.92,6.0,original
La3.56Pr0.2Tl4.41,6.0,original
Fe1.19Te2,6.0,original
Bi1.47F1.98Nd4.84S2.07,6.0,original
Bi1.47F1.45Nd4.84S2.07,6.0,original
Pb3.13Te2.37,6.0,original
Bi1.47F3.55Nd4.84S2.07,6.0,original
Bi1.47F2.5La1.11S0.95Se0.54,6.0,original
Bi6.37Co0.32O0.48S3.19,6.0,original
Ba0.48Na0.54Sb2.38Ti8.52,6.0,original
Cs10.49Li2.1Nb3.63O2.15Sr3.22,6.0,original
Be21.75Tc12.33,6.0,original
Al1.19Ca1.05Si0.18,6.0,original
Cs10.49Li1.37Nb3.63O2.15Sr3.22,6.0,original
Cu0.13La2.33O0.48,6.0,original
C10.41Cs2.57Na7.87Rb4.24,6.0,original
Ba1.72Cu1.39O1.18Pr0.36Y0.85,6.0,original
Ce0.71Cu0.13Eu12.63O0.48,6.0,original
Bi1.45K2.76O0.2,6.0,original
Dy18.34Ge8.27Os12.44Y7.43,6.0,original
Mo2.35N5.82,6.0,original
Ba6.04Ca2.29Si15.36,6.0,original
Si0.25,6.0,original
Be7.87Nb6.17Zr7.55,6.0,original
C0.41Ho6.55Th5.03,6.0,original
Mo1.1Os6.17,6.0,original
Ru1.47W2.16,6.0,original
Sb0.26Tl3.14,6.0,original
Sb0.73Tl1.37,6.0,original
Re0.72W2.48,6.0,original
W10.56,6.0,original
Sb2.38Tl31.69,6.0,original
Nb1.08,6.0,original
B1.62Dy5.71Ni4.79Y0.73,6.0,original
Re1.14V0.1,6.0,original
Bi1.3,6.0,original
Ge0.32Ir5.11Lu6.67Si1.42,6.0,original
Lu6.67Sn0.78,6.0,original
Al0.98Mg13.03Si0.92,6.0,original
Bi1.47F2.5S2.07Sm6.11,6.0,original
Bi1.47F1.4Nd4.84S2.07,6.0,original
Al5.18Ba7.98Eu1.27Si13.68,6.0,original
Ag4.11Se1.15Sn0.69,6.0,original
As1.47Ba0.64Fe2.05Ni0.31,6.0,original
Rh1.59Se1.15,6.0,original
P2.24Se0.39Zr6.59,6.0,original
La0.25P2.24Se0.39Zr6.01,6.0,original
Zr2.93,6.0,original
Mg3.17Ni7.22,6.0,original
Os0.21Zr3.31,6.0,original
LaSn2.54Tm0.56,6.0,original
Bi1.44F1.45Nd4.84S2.07,6.0,original
Ca1.05Rh3.52,6.0,original
Li4.89Nb1.1,6.0,original
Os1.46V0.34,6.0,original
Nb0.21Ta3.63,6.0,original
La0.83Th0.64,6.0,original
Ir2.67Os1.15Th3.56,6.0,original
Bi1.47F2.5La0.11S2.07Sm4.73,6.0,original
Co3.05Ni0.56Zr7.55,6.0,original
Nb0.56Rh0.65,6.0,original
Ga4.56Mo1.06,6.0,original
As0.65Fe0.96Sm6.8,6.0,original
Ba0.54K0.41Sb2.38Ti8.52,6.0,original
Re0.69W2.59,6.0,original
Bi1.47F0.93Nd4.84S2.07,6.0,original
Ce0.41La0.97Ru8.24Si0.58,6.0,original
Eu2.52Ge9.94Pr0.45Pt9.58,6.0,original
Ce4.01Pr0.21Ru5.45,6.0,original
As1.47Fe2.3K0.41Sr1.28,6.0,original
Bi1.47F2.5Nd3.84S2.07Sm1.26,6.0,original
O1.03Ru2.53Sr3.22Y2.04,6.0,original
Bi3.16Ca0.43Cu0.76O1.68Pr0.36Sr3.22,6.0,original
Ge3.25Ir6.85Lu16.84Si1.93,6.0,original
La0.83,6.0,original
Nb0.12Ti2,6.0,original
Ti3.37,6.0,original
Ba0.64,6.0,original
Re1.18Ti0.59,6.0,original
Hg7.24Sn5.19,6.0,original
Mo0.45Si0.25V1.94,6.0,original
Au7.67Nb3.06V0.3,6.0,original
Nb3.63Pt0.59Rh1.15,6.0,original
B1.62Co0.21Er7.65Ni4.7,6.0,original
Rh1.7Si0.25Ti4.19,6.0,original
Al0.74B1.62Mg0.64,6.0,original
Ga1.1Si0.25Sr1.46,6.0,original
Al0.98Si0.25Sr1.46,6.0,original
Sb0.11V0.54,6.0,original
B0.73Re1.05W6.63,6.0,original
Cr0.26Re0.6,6.0,original
In1.41Pb0.37,6.0,original
Tc9.24Ti0.94,6.0,original
Ir6.85Sn11.37Sr4.98,6.0,original
O0.2Rb0.72W5.25,6.0,original
O0.2Rb0.84W5.25,6.0,original
Nb1.1Re1.43Si0.25,6.0,original
Co3.27Ga0.24Zr7.55,6.0,original
As1.47Ba0.64Co0.96Fe1.99,6.0,original
As1.47Ba0.1Fe1.92K2.59Ni0.56,6.0,original
Bi4.85O0.2S3.19,6.0,original
Bi3.16F2.5S2.07,6.0,original
Co18.05In1.05La3.98Sn10.8,6.0,original
Bi3.16F3.02S2.07,6.0,original
Ag4.11Bi0.12Se1.15Sn0.6,6.0,original
B1.62Nb1.01,6.0,original
B1.62Ir3.36Ta5.24,6.0,original
Ta5.24,6.0,original
B0.73Mo1.1Re1.43,6.0,original
B3.4Ho10.97Ir0.58Rh6.44,6.0,original
P2.24Se0.39Y0.61Zr6.01,6.0,original
Br11.06C0.24I10.24Y4.44,6.0,original
Cu0.26Rh3.16S4.3,6.0,original
Re0.54W3.12,6.0,original
B1.62Dy2.02Lu2.61Ru2.65,6.0,original
In1.5,6.0,original
Bi16.84In1.5,6.0,original
Br22.17C0.24Y4.44,6.0,original
Hg0.33Sn0.72,6.0,original
Au1.85Ba0.64Ge9.94Pt8.98,6.0,original
Os1.62V0.3,6.0,original
B1.62Ni4.79Tb5.52Y1.09,6.0,original
Ga1.22Si0.22Sr1.46,6.0,original
Gd0.23In1.68La3.93,6.0,original
As0.48Fe1.02La0.97P1.22,6.0,original
In1.47,6.0,original
Mo7.34S0.61Se4.4,6.0,original
Co0.18Ga0.18V0.52,6.0,original
Nb6.17Pt7.15,6.0,original
As1.47Ba0.64Fe1.28Ru2.09,6.0,original
As1.47Ba0.39Fe2.3,6.0,original
La1.11Ni0.15Ru7.87Si0.58,6.0,original
O0.21Rb1.24W5.25,6.0,original
Cs10.49Li4.3Nb3.63O2.15Sr3.22,6.0,original
Hf7.89P2.8S0.33Y0.13,6.0,original
Cu0.13La2.12O0.48,5.0,original
Bi3.16Cu0.13La0.54O1.15Sr2.16,5.0,original
Li3.57Nb1.1,5.0,original
Ba1.02Ca0.3Cu1.39La1.47O1.28,5.0,original
Ca1.24Cu0.76La2.05Nd0.84O1.03,5.0,original
Ca14.11Cu14.61O10.8Sr4.1,5.0,original
Ba1.72Cu1.39O1.26Pr0.21Sm4.73,5.0,original
Ca1.05Ce2.81Cu0.76O1.31Sr2.34Tl4.41,5.0,original
Ba1.35Cu1.39La1.47O1.31,5.0,original
Ca14.73Cu14.61O10.8Sr3.22,5.0,original
Co4.41H9.43Na1.33O0.28,5.0,original
Ca14.73Cu14.61O10.8Sr19.08,5.0,original
Cu0.13Eu1.27La0.66O0.48,5.0,original
Co4.41H9.43Na1.14O0.28,5.0,original
C0.24Na3.91,5.0,original
Mo2.35N5.82,5.0,original
Mo1.1Se1.15,5.0,original
Fe0.13Hf9.88V1.29,5.0,original
Ti2.17,5.0,original
Ti2.4,5.0,original
Ti2.14,5.0,original
Si0.25,5.0,original
Nb0.36,5.0,original
Nb1.1Se1.77,5.0,original
Ba6.71Si15.36,5.0,original
Co4.41Zr7.55,5.0,original
Mo0.75Re0.22,5.0,original
Ru1.13V0.37,5.0,original
Ru0.97W3.12,5.0,original
N1.91Re1.43,5.0,original
Hf8.88Ta0.42,5.0,original
W5.25,5.0,original
Nb1.1S2.07,5.0,original
Dy15.71Ir6.85Sc17.49Si3.27,5.0,original
B1.62Ho10.97Ni4.77,5.0,original
Au1.47Nb0.85,5.0,original
Nb1.1,5.0,original
Ga0.16Mn1.06Nb0.77,5.0,original
B1.62Mg3.17,5.0,original
Ru2.65Si0.25Zr3.7,5.0,original
Nb2.37S0.95,5.0,original
Mo7.34Pb3.13Se4.56,5.0,original
Co18.05Sc25.01Si3.27,5.0,original
Br22.17C0.24Y4.44,5.0,original
Al0.98Si0.25Sr1.46,5.0,original
Ba8.19Ge7.43Si12.34,5.0,original
Nb0.97,5.0,original
Zr3.38,5.0,original
Zr3.56,5.0,original
Zr3.54,5.0,original
Mo1.1S2.07,5.0,original
Re2.92Th3.56,5.0,original
Pd0.1Ti3.76,5.0,original
Ga6.87Tb13.87,5.0,original
Al2.03Np72.35Pd10.1,5.0,original
La1.11,5.0,original
B0.73Hf0.85Mo2.23,5.0,original
Ba0.64Ge9.94Pt9.58,5.0,original
As0.65Ce5.81Co0.55Fe0.83,5.0,original
As1.47Ba0.54Fe2.3K0.41,5.0,original
Co0.32Fe0.89Se0.54,5.0,original
As0.32Fe1.02La1.11P0.66,5.0,original
Ir6.85Sn11.37Sr4.98,5.0,original
Mo7.34Se3.61Tl8.96,5.0,original
C0.76Ni12.26Th10.87,5.0,original
As1.47Ba0.64Co0.36Fe1.98Zn0.25,5.0,original
,5.0,original
Ba0.48Na0.54Sb2.38Ti8.52,5.0,original
Br1.95Fe1.02Se0.43,5.0,original
Br2.17Fe1.02Se0.42,5.0,original
Br3.28Fe1.02Se0.36,5.0,original
Mg0.21N5.05Nb0.97,5.0,original
Co4.41La3.98Ru8.24Sn11.37,5.0,original
Bi1.47Eu3.35F5.12La0.4S1.17Se0.42,5.0,original
Re35.59Zr19.11,5.0,original
Cs10.49Li3.57Nb3.63O2.15Sr3.22,5.0,original
Ca2.29Li0.63Nb3.63O2.15Rb5.68,5.0,original
Ca2.29K5.32Li0.63Nb3.63O2.15,5.0,original
B0.73Ta3.63Zr,5.0,original
P2.15Se0.42Zr3.7,5.0,original
Ca3.54Ir6.85Sn11.37,5.0,original
Bi3.16Pd1.94,5.0,original
Hf3.9Lu1.93P2.61S0.45,5.0,original
Ba1.72Cu0.13Hg7.24O0.48,50.0,original