formula,Tc
Tl0.5Pb0.5Sr2Ca0.9Y0.1Cu2O7,99.300
Y1Ba1.975La0.025Cu3O6.95,99.000
Y1Ba1.95La0.05Cu3O6.9,99.000
Y1Ba1.925La0.075Cu3O6.9,99.000
Sr2Ca1Cu2F2O4.6,99.000
Sr0.7Ca0.3Cu1O2,99.000
Bi2Sr2Ca1Cu2O8,99.000
Tl2Ba2Ca0.9Ce0.1Cu1.98Fe0.02O8,99.000
C0.3Ba2Ca4Cu5.7O12.8,99.000
Tl0.25Li0.25Ba2Ca2Cu2.25Si1.25O7.719,99.000
Bi2Sr2Ca1Cu2O8,98.000
Sr0.6Ca0.333Cu1O2.2,98.000
Hg1Ba2Cu1O4.09,98.000
Hg1Ba2Cu1O4.12,98.000
Hg1Ba2Ca1Cu2O6.31,98.000
Hg1Ba2Ca2Cu3O8.17,98.000
Hg1Ba2Cu1O4.081,98.000
V0.5Sr2.25Ca1.75Cu3.5O9.7,98.000
Sr1.4Ba0.6Cu1O3.4,98.000
Cu1Cr0.9Fe0.1O2,98.000
Tl1Ba2Ca0.8Y0.2Cu2O7,97.600
Hg1Ba2Cu1O4.162,97.400
Hg1Ba2Cu1O4.15,97.200
Y1Ba2Cu3O6.94,97.000
Tl1Ba1Sr1Ca2Cu3O9,97.000
Hg1Ba2Cu1O4.09,97.000
Bi1.6Pb0.4Sr2Ca2Cu3O10.15,97.000
Hg0.95Re0.05Ba2Cu1O4.372,97.000
Hg1Ba2Cu1O4.18,97.000
Hg1Ba2Cu1O4.22,97.000
Hg1Ba2Cu1O4.23,97.000
Hg1Ba2Cu1O4.13,97.000
Y1Ba2Cu3O6.69,97.000
Hg1Ba2Cu1F1O4,97.000
Hg1Ba2Cu1O4,97.000
Hg0.9Re0.1Ba2Cu1O4.425,96.800
Hg1Ba2Cu1O4.15,96.800
Hg1Ba2Cu1O4.18,96.600
Hg0.92Ba2.05Cu1.03O4.062,96.500
Tl1Ba2Ca0.8Nd0.2Cu2O7,96.300
Hg0.85Re0.15Ba2Cu1O4.525,96.300
Hg0.85Re0.15Ba2Cu1O4.53,96.300
Gd1Ba2Cu3O7,96.200
Yb1Ba2Cu3O7,96.100
Y1Ba1.9La0.1Cu3O7,96.100
Gd1Ba2Cu3O7,96.000
Hg1Ba2Cu1O4.09,96.000
Hg0.8V0.2Ba2Cu1O4.3,96.000
Nd1Ba2Cu3O7,96.000
Hg1Ba2Cu1O4.08,96.000
Hg0.95Re0.05Ba2Cu1O4.37,96.000
Hg1Ba2Cu1O4,96.000
Sm1Ba2Cu3O7,96.000
Y0.8Ba2Cu3O6.44,96.000
Hg1Ba2Cu1F1O4,96.000
Bi2Sr2.1Y0.1Ca0.8Cu2O8.26,96.000
Y1.1Ba2Cu3O6.87,95.900
Tl1Ba2Ca0.6Y0.4Cu2O7,95.800
Gd1Ba2Cu3O7,95.700
Hg1Ba2Cu1O4.096,95.600
Sm1Ba2Cu3O7,95.500
Tl1Ba2Ca0.7Nd0.3Cu2O7,95.500
Y1Ba2Cu3O7,95.500
Nd1Ba2Cu3O7.16,95.300
Hg1Ba2Cu1O4.097,95.300
Bi2Sr2.08Ca0.92Cu2O8,95.300
Eu1Ba2Cu3O7,95.200
Y1Ba2Cu3O6.91,95.200
Y1Ba2Cu3O6.87,95.200
Dy1Ba2Cu3O7,95.100
Nd1Ba2Cu3O7,95.100
Y1Ba2Cu3O6.9,95.000
Y1Ba1.9La0.1Cu3O6.9,95.000
Y1Ba2Cu3O6.94,95.000
Y1Ba2Cu3O7,95.000
Bi2Sr2Ca2Cu4O11,95.000
Tl2Ba2Ca1Cu2O7.978,95.000
Ho1Ba2Cu3O7,95.000
Eu1Ba2Cu3O7,95.000
Tl1Ba2Cu1O5,95.000
Hg0.8Cr0.2Ba2Ca2Cu3O8.1,95.000
Nd1Ba2Cu3O6.82,95.000
Hg0.9Re0.1Ba2Cu1O4.42,95.000
Bi2Sr2Ca1Cu2O8,95.000
Hg1Ba2Cu1O4.18,95.000
Hg1Ba2Cu1O4.19,95.000
Sm1Ba2Cu3O6.95,95.000
Hg1Ba2Cu1O4.047,95.000
Tl0.5Ba2Ca1.3Be0.7Cu3.5O7.886,95.000
Sr2Cu1O3.4,95.000
Sr2Ca3Cu4F3.8O8,95.000
Eu1Ba2Cu3O7.1,94.900
Y2Ba4Cu7O14,94.800
Hg0.85Re0.15Ba2Cu1O4.52,94.800
Eu1Ba2Cu3O6.97,94.770
Er1Ba2Cu3O6.87,94.500
Y0.975Ca0.025Ba2Cu2.975Al0.025O6.89,94.500
Y1Ba2Cu3H0.2O6.98,94.500
Nd1Ba2Cu3O7,94.500
Hg0.9Re0.1Ba2Cu1O4.41,94.500
Nd1Ba2Cu3O7,94.400
Y1Ba2Cu2.95Co0.05O6.92,94.300
Y1Ba2Cu3O7,94.300
Bi8Sr8Ca4Cu9O34.16,94.200
Y2Ba4Cu7O14,94.200
Hg1Ba2Cu1O4.2,94.200
Gd1Ba2Cu3O6.98,94.200
Bi2Sr2.4Ca0.6Cu2O8,94.200
Y1Ba2Cu3O6.9,94.100
Hg1Ba2Cu1O4.1,94.100
Eu1Ba2Cu3O6.88,94.000
Gd1Ba2Cu3O6.99,94.000
Sm1Ba2Cu3O6.944,94.000
Y1Ba2Cu3O7,94.000
Bi2Sr1.4Li0.6Ca1Cu2O7.7,94.000
Y1Ba1.94La0.06Cu3O6.96,94.000
Y1Ba1.92La0.08Cu3O6.96,94.000
Hg1Ba2Cu1O4.08,94.000
Nd1Ba2Cu3O6.76,94.000
Dy1Ba2Cu3O6.75,94.000
Eu1Ba2Cu3O6.82,94.000
Hg1Ba2Ca2Cu3O8.18,94.000
Hg1Ba2Cu1O4.18,94.000
Hg1Ba2Ca2Cu3O8.17,94.000
Eu1Ba2Cu3O6.9,94.000
Bi2Sr1.9Y0.1Ca1Cu2O8.24,94.000
Y1Ba1.9La0.1Cu3O6.975,93.900
Y1Ba2Cu3O6.8,93.900
Er0.97Pr0.03Ba2Cu3O7,93.900
Gd1Ba2Cu3O7.08,93.800
Y0.2Eu0.8Ba2Cu3O7,93.800
Y1Ba2Cu3H0.38O7,93.800
Y1Ba1.95La0.05Cu3O6.96,93.800
Hg0.92Ba2.05Cu1.03O4.05,93.800
Hg0.9Re0.1Ba2Cu1O4.42,93.800
Y1Ba2Cu3O6.9,93.800
Y1Ba1.7Cs0.3Cu3O6.6,93.750
Bi2Sr2Ca1Cu2O8,93.700
Hg0.85Re0.15Ba2Cu1O4.49,93.700
Hg0.85Re0.15Ba2Cu1O4.55,93.700
Y0.95La0.05Ba2Cu3O6.58,93.650
Y1Ba2Cu3H0.48O7,93.600
Tl1Ba2Ca0.8Gd0.2Cu2O7,93.600
Y1Ba2Cu3H0.49O7,93.600
Y1Ba1.89La0.11Cu3O6.96,93.600
Y1Ba1.96La0.04Cu3O6.96,93.600
Er1Ba2Cu3O7,93.600
Eu1Ba2Cu3O6.94,93.600
Gd1Ba2Cu3O7,93.600
Y1Ba2Cu3O6.9,93.600
Bi2Sr2.65Ca0.35Cu2O8,93.600
Sm1Ba2Cu3O7.11,93.500
Bi4Ca3Sr3Cu4O16,93.500
Nd1Ba2Cu3O7,93.500
Y1Ba2Cu3H0.13O7,93.500
Y1Ba2Cu3H0.19O7,93.500
Y1Ba1.9La0.1Cu3O6.96,93.500
Y1Ba2Cu3O6.95,93.500
Y1Ba2Cu3O6.93,93.500
Y1Ba2Cu3O6.87,93.500
Y1Ba2Cu3O6.94,93.500
Y1Ba1.9Cs0.1Cu3O6.65,93.450
Y1Ba2Cu3O6.72,93.400
Y1Ba2Cu2.98Co0.02O6.9,93.400
Y1Ba2Cu3O7,93.400
Hg0.92Ba2.05Cu1.03O4.063,93.400
Hg1Ba2Cu1O4.101,93.400
Y1Ba2Cu3O6.95,93.400
Y0.9Ba2Cu3O6.58,93.400
Y1.2Ba2Cu3O6.98,93.400
Y1Ba1.9Rb0.1Cu3O6.52,93.350
Y1Ba1.8Cs0.2Cu3O6.58,93.300
C0.3Ba2Ca4Cu5.7O12.965,93.300
Y1Ba2Cu3H1O7,93.200
Y2La0.15Ba3.85Cu6O13.99,93.200
Y1Ba2Cu3O6.87,93.200
Y0.5Cd0.5Ba2Cu3O7,93.200
Y1Ba1.88La0.12Cu3O6.96,93.200
Y1Ba1.97La0.03Cu3O6.96,93.200
Y1Ba2Cu3O6.95,93.200
Y1Ba2Cu3O6.19,93.200
Hg1Ba2Cu1O4.18,93.200
Y1Ba2Cu3O4.86,93.200
Y1Ba2Cu3O6.93,93.200
Y1Ba2Cu3O7,93.150
Gd0.97Pr0.03Ba2Cu3O7,93.100
Y1Ba2Cu3O6.91,93.100
Y1Ba2Cu3O6.93,93.100
Y2Ba4Cu7O14.97,93.100
Sm1Ba2Cu3O7,93.100
Bi2Sr2Ca1Cu2O8,93.100
Y1Ba2Cu3O6.95,93.050
Y1Ba2Cu3O7,93.000
Y2La0.2Ba3.8Cu6O13.92,93.000
Y2Ba4Cu6O13.9,93.000
La1Ba2Cu3O6.85,93.000
Nd1Ba2Cu3O6.84,93.000
Y1Ba2Cu3.85O6.85,93.000
Y2Ba4Cu7O15,93.000
Er1Ba2Cu3O7,93.000
Bi2Sr2Ca1Cu2O8,93.000
Bi2.15Sr1.8Ca1Cu2O8.15,93.000
Ga1Sr2Ca3Cu4O10.8,93.000
Y1Ba1.8K0.2Cu3O6.57,93.000
Y1Ba1.9La0.1Cu3O6.92,93.000
Tl1Sr2Ca0.2Y0.8Cu2O6.97,93.000
Y1Ba2Cu3O6.94,93.000
Y1Ba2Cu3O8,93.000
Er1Ba2Cu3O6.85,93.000
Y1Ba2Cu3O6.82,93.000
Hg1Ba2Ca1Cu2O6.1,93.000
Y1Ba2Cu3O6.93,93.000
Y1Ba2Cu3O6.91,93.000
Y1Ba2Cu3O6.9,93.000
Y1Ba2Cu3O6.7,93.000
Y1Ba2Cu3O6.95,93.000
Bi2Sr1.8Y0.1Ca1.1Cu2O8.23,93.000
Gd1.1Ba1.9Cu3O7,93.000
Bi1.2Pb0.8Sr2Ca1Cu2O8,93.000
Tl0.7Na0.3Sr2Ca0.8Cr0.2Cu2O7,93.000
Ho1Ba2Cu3O6.71,92.900
Gd1Ba2Cu3O6.89,92.900
Y1Ba2Cu3O6.94,92.900
Y1Ba1.7K0.3Cu3O6.54,92.850
Y1Ba1.9La0.1Cu3O6.73,92.850
Y1Ba2Cu3O7,92.830
Sm1Ba2Cu3O6.85,92.800
Y0.8Cd0.2Ba2Cu3O7,92.800
Y0.7Cd0.3Ba2Cu3O7,92.800
Bi2Sr2Ca1Cu2O8.16,92.800
Y1Ba2Cu3H0.06O6.91,92.800
Y2Ba4Cu7O15.1,92.800
Y1Ba2Cu3O6.95,92.800
Yb1Ba2Cu3O6.9,92.800
Y1Ba2Cu3O6.95,92.740
Dy1Ba2Cu3O6.82,92.700
Bi2Sr2Ca1Cu2O8.16,92.700
Y1Ba1.9K0.1Cu3O6.61,92.700
Bi2Sr2Ca1Cu2O8.19,92.700
Sm1Ba2Cu3O7,92.600
Y1Ba1.92La0.08Cu3O6.965,92.600
Y0.6Eu0.4Ba2Cu3O7,92.600
Bi2Sr2Ca0.8Y0.2Cu2O8.27,92.600
Y1Ba1.98La0.02Cu3O6.96,92.600
Y1Ba2Cu3O6.93,92.600
Y1Ba2Cu3O6.94,92.600
Y1Ba2Cu3O6.9,92.600
Bi2Sr2Ca1Cu1.988Ni0.012O8,92.550
Y1Ba2Cu3H0.14O7,92.500
Tm1Ba2Cu3O6.65,92.500
Y1Ba2Cu3O6.94,92.500
Er1Ba2Cu3O7,92.500
Y1Ba2Cu3O7,92.500
Y1Ba2Cu3O6.9,92.500
Bi2Sr2Ca0.8Lu0.2Cu2O8.27,92.500
Dy1Ba2Cu3O7,92.500
Tl2Ba2Cu1O6.1,92.500
Hg1Ba2Cu1O4.103,92.500
Y1Ba2Cu3O6.95,92.500
Y0.95Cs0.05Ba2Cu3O6.61,92.450
Er1Ba2Cu3O6.82,92.400
Tl2Ba2Cu1O6.1,92.400
Lu1Ba2Cu3O7,92.400
Y0.9Rb0.1Ba2Cu3O6.42,92.400
Y1Ba2Cu3O6.92,92.400
Bi2Sr2Ca1Cu2O8,92.400
Y1Ba2Cu3O6.906,92.400
Y1Ba2Cu3O6.95,92.400
Y0.9La0.1Ba2Cu3O6.62,92.350
Y1Ba2Cu3O6.75,92.300
Y1Ba2Cu2.94Zr0.06O6.81,92.300
Y0.925Ba1.975Ca0.1Cu4O8,92.300
Y1Ba2Cu3O6.99,92.300
Y1.2Ba1.8Cu3O6.68,92.300
Ho1Ba2Cu3O6.87,92.300
Dy1Ba2Cu3O6.9,92.300
Y1Ba2Cu3O7,92.300
Y1Ba2Cu3O6.96,92.300
Y1Ba2Cu3O6.962,92.200
Y1Ba2Cu3O6.95,92.200
Nd1Ba2Cu3O7,92.200
Y1Ba2Cu3O6.92,92.200
Y1Ba2Cu3O6.96,92.200
Y1Ba2Cu3O6.98,92.200
Bi2Sr2Ca1Cu2O8.272,92.200
Eu1Ba2Cu3O7,92.150
Y1Ba2Cu3O7,92.120
Ho1Ba2Cu3O7,92.100
Y1Ba2Cu3O6.89,92.100
Y1Ba2Cu3O7,92.100
Tm1Ba2Cu3O7,92.100
Bi2Sr2Ca0.8Yb0.2Cu2O8.26,92.100
Y1Ba1.99La0.01Cu3O6.96,92.100
Tl2Ba2Cu1O6,92.100
Hg0.92Ba2.05Cu1.03O4.058,92.100
Y1Ba2Cu3O6.962,92.100
Y0.9K0.1Ba2Cu3O6.51,92.050
Y0.95Rb0.05Ba2Cu3O6.59,92.050
Y1Ba2Cu3O7,92.030
Y1Ba2Cu3O7,92.000
Y1Ba2Cu2.9Al0.1O6.93,92.000
Y1Ba2Cu3O6.85,92.000
Y1Ba2Cu3O6.98,92.000
Eu1Ba2Cu3O7,92.000
Gd1Ba2Cu3O7,92.000
Gd1Ba2Cu3S1O6,92.000
Y1Ba2Cu3O6.89,92.000
Gd1Ba2Cu3O6.9,92.000
Y1Ba2Cu2.97Co0.03O6.96,92.000
Y1Ba2Cu2.925Co0.075O6.97,92.000
Y1Ba2Cu3O6.8,92.000
Er1Ba2Cu3O6.91,92.000
Y1Ba2Cu3O6.9,92.000
Y1Ba2Cu3O7.1,92.000
Tl2Ba2Ca1Cu2O7.984,92.000
Er1Ba2Cu3O7,92.000
Nd1.1Ba1.9Cu3O6.9,92.000
Y1Ba2Cu3O6.93,92.000
Bi2Sr2Ca0.8Y0.2Cu2O8.26,92.000
Y2Ba4Cu7O15,92.000
Bi2Sr2Ca1Cu2O8.194,92.000
Ba2Cu3O7,92.000
Y1Ba2Cu3O6.92,92.000
Y0.95Ca0.05Ba2Cu2.95Al0.05O6.88,92.000
Y1Ba2Cu3Br0.9O6.2,92.000
Bi0.33Hg0.67Sr2Y0.5Ca0.5Cu2O7,92.000
Hg1Ba2Ca1Cu2O6.08,92.000
Y1Ba2Cu3H1.4O6.98,92.000
Y1Ba1Sr1Cu3O6.9,92.000
Tl1Ba2Sr1Ca2Cu3O9,92.000
Y1Ba2Cu3O6.94,92.000
Y1Ba2Cu3O6.96,92.000
Y1Ba2Cu3O6.83,92.000
Tl1Sr2Ca0.5Y0.5Cu2O6.89,92.000
Tl1Sr2Ca0.4Y0.6Cu2O6.93,92.000
Tl1Sr2Ca0.3Y0.7Cu2O6.97,92.000
Hg1Ba2Cu1O4.085,92.000
Hg1Ba2Cu1O4.1,92.000
Pr1Ba2Cu3O7,92.000
Y1Ba2Cu3O4,92.000
Bi1.8Pb0.2Sr2Ca1Cu2O8,92.000
Y1Ba2Cu3O6.03,92.000
Y1Ba2Cu3O6.88,92.000
Y1Ba2Cu3O6.95,92.000
Hg1Ba2Ca1Cu2O6.1,92.000
Tl0.5Pb0.5Sr2Ca0.65Y0.35Cu2O7,92.000
Eu1Ba2Cu3O6.5,92.000
Y1Ba2Cu3O6.6,92.000
Y1Ba2Cu3O6.1,0.000
Y1Ba2Cu3O6.91,92.000
Bi2Sr2Ca1Cu2O8.25,92.000
Y1Re0.05Ba2Cu2.95O7.02,92.000
Y1Re0.05Ba2Cu2.95O7.04,92.000
Gd1Ba2Cu3O6.758,92.000
Tl0.7Li0.3Sr2Ca0.8Cr0.2Cu2O7,92.000
Y1Ba2Cu3O7,91.950
Y0.85Rb0.15Ba2Cu3O6.48,91.950
Y1Ba1.9La0.1Cu3O7.06,91.900
Y1Ba1.86La0.14Cu3O6.96,91.900
Y1Ba2Cu3O7,91.850
Y1Ba2Cu2.98Fe0.02O6.93,91.800
Y1Ba2Cu2.95Fe0.05O6.92,91.800
Y1Ba2La1.94Cu3O6.963,91.800
Y1Ba2Cu3O7,91.800
Tl1Ba2Ca0.9Gd0.1Cu2O7,91.800
Y0.887Ba1.962Ca0.15Cu4O8,91.800
Y1Ba2Cu3O6.939,91.800
Ho1Ba2Cu3O6.96,91.800
Y1Ba1.96Sr0.04Cu3O6.98,91.800
Y1Ba2Cu3O6.955,91.800
Y1Ba2Cu3O6.96,91.800
Y1Ba2Cu3O6.94,91.700
Bi2Sr2Ca0.8Dy0.2Cu2O8.26,91.700
Y0.6Cd0.4Ba2Cu3O7,91.700
Y0.4Cd0.6Ba2Cu3O7,91.700
Nd1Ba2Cu3O6.81,91.700
Y0.95Sc0.05Ba2Cu3O6.63,91.700
Y1Ba1.8La0.2Cu3O6.81,91.700
Y1Ba2Cu3H0.52O6.91,91.700
Y1Ba2Cu3O7,91.700
Dy1Ba2Cu3O7,91.700
Y1Ba2Cu3O7,91.600
Y1Ba2Cu3O6.8,91.600
Y1Ba2Cu2.98Ni0.02O7,91.600
Y1Ba2Cu3O6.97,91.600
Y0.85Ba1.95Ca0.2Cu4O8,91.600
Y1Ba2Cu3O6.9,91.600
Hg0.92Ba2.05Cu1.03O4.065,91.600
Y1Ba2Cu3O7,91.500
Y1Ba1.9K0.1Cu3O6.9,91.500
Y0.95Pr0.05Ba2Cu3O6.97,91.500
Y0.95Pr0.05Ba2Cu3O6.95,91.500
Y0.962Ba1.987Ca0.05Cu4O8,91.500
Ho1Ba2Cu3O6.9,91.500
Y1Ba2Cu3O6.92,91.500
Y1Ba2Cu3O6.9,91.500
Y0.95Pr0.05Ba2Cu3O6.96,91.500
Er1Ba2Cu3O6.94,91.500
Nd1Ba2Cu3O6.93,91.500
Y0.975Ca0.025Ba2Cu3O6.95,91.500
Y1Ba2Cu3O6.88,91.500
Ho1Ba2Cu3O7,91.500
Y1Re0.1Ba2Cu2.9O7,91.500
Y1Re0.15Ba2Cu2.85O7.07,91.500
Bi2Sr3Cu2O8,91.500
Y1Ba2Cu2.96Co0.04O7,91.500
Y1Ba2Cu3O6.8,91.400
Y1Ba2Cu3O7,91.400
Y1Ba2Cu2.955Fe0.045O6.93,91.400
Y1Ba2Cu3O6.99,91.400
Y1Ba2Cu3O6.9,91.400
Y0.9Sc0.1Ba2Cu3O6.56,91.400
Y1Ba2Cu3H0.91O6.91,91.400
Dy0.95Pr0.05Ba2Cu3O6.9,91.400
Y1Ba2Cu3O6.93,91.400
Y1Ba2Cu3O6.96,91.400
Y1Ba2Cu3O6.94,91.400
Y0.2Yb0.8Ba2Cu3O6.91,91.400
Y1Ba2Cu3O7,91.300
Y1Ba2Cu3O7.1,91.300
Ho1Ba2Cu3O7,91.300
Y1Ba2Cu3O6.96,91.300
Y0.9Cs0.1Ba2Cu3O6.47,91.300
Y1Ba2Cu3O6.97,91.300
Y1.1Ba1.9Cu3O6.65,91.250
Y1Ba2Cu3H0.32O6.91,91.250
Y1Ba2Cu3O7,91.200
Y1Ba2Cu3O6.82,91.200
Y1Ba2Cu2.95Co0.05O6.88,91.200
Y1Ba2Cu2.97Fe0.03O7,91.200
Bi2Sr2Ca0.8Yb0.2Cu2O8.26,91.200
Y1Ba2Cu3O6.94,91.200
Y1Ba2Cu3O6.951,91.190
Y1Ba2Cu3Li0.02O7,91.180
Y1Ba2Cu3O7,91.150
Y1Ba2Cu3O7,91.100
Sm1Ba2Cu3O6.878,91.100
Er1Ba2Cu3O7,91.100
Bi2Sr1.8Ca1Lu0.2Cu2O8.27,91.100
Y0.9Ca0.1Ba2Cu2.9Al0.1O6.88,91.100
Er0.924Pr0.076Ba2Cu3O7,91.100
Y1Ba2Cu3O6.821,91.100
Y1Ba2Cu3H0.27O6.91,91.100
Y0.4Yb0.6Ba2Cu3O6.93,91.100
Nd1Ba1.8Sr0.2Cu3O6.96,91.100
Y1Ba2Cu3O7,91.060
Y1Ba1.7Rb0.3Cu3O6.52,91.050
Dy1Ba2Cu3O7,91.050
Y1Ba2Cu3O6.74,91.000
Y1Ba2Cu2.95Al0.05O6.93,91.000
Y1Ba2Cu3O6.9,91.000
Y1Ba2Cu3O6.84,91.000
Y1Ba2Cu3O7,91.000
Y1Ba2Cu3O6.86,91.000
Y1Ba2Cu3O6.92,91.000
Y1Ba2Cu3O6.95,91.000
Y0.9Ca0.1Ba2Cu4O8,91.000
Y1Ba2Cu3O6.93,91.000
Bi2Sr2Ca1Cu2O8.195,91.000
Bi2Sr2Ca1Cu2O8.118,91.000
Sr1Cu1O2,91.000
Y1Ba2Cu3F0.25O6.7,91.000
Y1Ba2Cu3F0.29O6.7,91.000
Y1Ba2Cu3F0.38O6.7,91.000
Hg1Ba2Cu1O4.07,91.000
Y1Ca1Ba2Cu3Ni1O6.89,91.000
Sm1Ba2Cu3O6.86,91.000
Bi2Sr2Ca1Cu2O8.26,91.000
Nd1Ba2Cu3O6.98,91.000
Y0.14Tm0.85Ba2Cu3O7,91.000
Gd1Ba2Cu3O6.969,91.000
Y1Ba2Cu3F0.1O7,91.000
Y1Ba2Cu3F0.2O7,91.000
Tl1.63Ba2Ca1.3Cu2O7.94,91.000
Y0.9Tb0.1Ba2Cu3O7,91.000
Y0.68Tb0.32Ba2Cu3O7,91.000
Hg1Ba2Cu1O4.27,91.000
Y1Ba2Cu2.94Fe0.06O7.254,91.000
Tl2Ba2Cu1O6,91.000
Dy1Ba2Cu3O7,91.000
Hg0.8Mn0.2Ba2Cu1O4.2,91.000
Y1Ba1.9La0.1Cu3O6.99,91.000
Er1Ba2Cu3O6.93,91.000
Y1Re0.1Ba2Cu2.9O7.09,91.000
Y1Re0.15Ba2Cu2.85O7.17,91.000
Y1Ba2Cu3O6.957,91.000
Y0.99La0.01Ba2Cu3O7.07,91.000
Y0.9La0.1Ba2Cu3O6.97,91.000
Bi1.4Pb0.6Sr2Ca1Cu2O8,91.000
Na0.05W1O3,91.000
Ba2Ca3Cu4F1.4O8.6,91.000
Y1Ba2Cu3H0.14O6.91,90.950
Y1Ba2Cu3O6.85,90.900
Bi2Sr2Ca0.8Gd0.2Cu2O8.27,90.900
Bi2Sr2Ca0.8Eu0.2Cu2O8.26,90.900
Y1Ba2Cu3O6.95,90.900
Er1Ba2Cu3O6.953,90.900
Hg1Ba2Cu1O4.105,90.900
Gd1Ba2Cu3O6.99,90.900
Y1Ba2Cu2.97Ga0.03O7,90.880
Y1Ba2Cu3O7,90.850
Y1Ba2Cu3O6.93,90.850
Tl1Ba2Ca0.9Nd0.1Cu2O7,90.800
Bi2Sr2Ca0.8Dy0.2Cu2O8.26,90.800
Lu1Ba2Cu3O7,90.800
Y1Ba2Cu3O6.89,90.800
Gd1Ba2Cu3O6.94,90.800
Y1Ba2Cu3O6.96,90.750
Sm1Ba2Cu3O6.941,90.700
Y1Ba2Cu3O7,90.700
Y1Ba2Cu2.98Fe0.02O7,90.700
Sm1Ba2Cu3O6.99,90.700
Y1Ba2Cu3O6.96,90.700
Hg0.92Ba2.05Cu1.03O4.044,90.700
Y1Ba2Cu3O6.9,90.600
Y1Ba2Cu2.95Ni0.05O7,90.600
Y1.04Ba1.96Cu3O6.8,90.600
Y1Ba2Cu3O6.88,90.600
Y1Ba2Cu3O7,90.600
Bi2Sr2Ca1Cu2O8.21,90.600
Y1Ba1.8Rb0.2Cu3O6.56,90.550
Y1Ba2Cu3F0.825O1,90.500
Y1Ba2Cu3O7,90.500
Y1Ba1.8Sr0.2Cu3O6.8,90.500
Y0.85Ca0.15Ba2Cu2.85Al0.15O6.87,90.500
Y1Ba2Cu3O6.93,90.500
Y1Ba2Cu2.985Ni0.015O6.92,90.500
Y1Ba2Cu3O6.94,90.500
Nd1Ba2Cu3O6.09,90.500
Hg0.9Re0.1Ba2Cu1O4.35,90.500
Y1Ba2Cu4O6.998,90.500
Bi2Sr2Ca0.8Eu0.2Cu2O8.26,90.400
Bi2Sr1.8Ca1Y0.2Cu2O8.25,90.400
Sm1Ba2Cu3O6.85,90.400
Y0.85Cs0.15Ba2Cu3O6.5,90.400
Y1La0.2Ba1.8Cu3O7.49,90.400
Y1La0.2Ba1.8Cu3O7.79,90.400
Tm1Ba2Cu3O7,90.400
Tm1Ba2Cu3O6.91,90.360
Y1Ba1.9La0.1Cu3O6.99,90.350
Y1Ba2Cu3F1.65O5.675,90.300
Y1Ba2Cu3O7,90.300
Y1Ba2Cu3O6.87,90.300
Y1Ba2Cu3O6.98,90.300
Y1Ba2Cu3O7,90.250
Y1Ba2Cu2.98Zr0.02O6.84,90.200
Y1Ba2Cu3O7,90.200
Bi2Sr2Ca1Cu2O8.288,90.200
Y1Ba2Cu3O6.95,90.200
Y0.85K0.15Ba2Cu3O6.48,90.150
Bi2Sr1.8Ca1Yb0.2Cu2O8.26,90.100
Y1Ba2Cu2.93Fe0.03O7,90.100
Y1Ba2Cu3O6.91,90.100
Y1Ba2Cu3O7,90.100
Y1Ba2Cu3O7,90.000
Y1Ba2Cu3S1O6,90.000
Y1Ba2Cu3S0.03O7.12,90.000
Y2La0.1Ba3.9Cu6O13.94,90.000
Y1Ba2Cu2.85Ag0.15O7,90.000
Y1Ba2Cu2.9Sn0.1O7.28,90.000
Bi2Sr2Ca1Cu2O8,90.000
Tl2Ba2Ca1Cu2O7.984,90.000
Y0.85Ca0.15Ba2Cu4O8,90.000
Y0.8Ca0.2Ba2Cu4O8,90.000
Y0.7Ca0.3Ba2Cu4O8,90.000
Bi2Sr2Ca0.9Y0.1Cu2O8.23,90.000
Gd1Ba2Cu3O7,90.000
Y1Ba2Cu3O6.95,90.000
Bi2Sr2Ca1Cu2O8.1,90.000
Sm1Ba2Cu3O6.95,90.000
Gd1Ba2Cu3O6.95,90.000
Eu1Ba2Cu3O7.01,90.000
Tm1Ba2Cu3O7,90.000
Er1Ba2.03Cu3.05O7,90.000
Er1Ba2Cu3O7,90.000
Pb0.7Hg0.3Sr2Nd0.3Ca0.7Cu2O6.6,90.000
Y1Ba2Cu2.7In0.3O6.9,90.000
Y1Ba2Cu3O6.869,90.000
Er1Ba2Cu3O6.92,90.000
Hg0.8V0.2Ba2Cu1O4.3,90.000
Pr1Ba2Cu3O7,90.000
Ge0.4Cu3Sr2Ca1.9Y0.1O9.3,90.000
Cu2C0.5Sr2Ca1O7,90.000
Tl1Sr1.5La0.5Ca1Cu2O7,90.000
Er1Ba2Cu2.95Ga0.05O6.75,90.000
Y1Ba2Cu3O6.96,90.000
Y1Ba2Cu3O6.91,90.000
Dy1Ba2Cu3O6,90.000
Nd1Ba2Cu3O6.94,90.000
Hg1Tl1Ba2Ca4Cu5O14,90.000
Y1Ba2Cu3O6.99,90.000
Sm1Ba2Cu3O6.92,90.000
Dy1Ba2Cu3O6.84,90.000
Sm1Ba2Cu3O6.89,90.000
Dy1Ba2Cu3O6.68,90.000
Sm1Ba2Cu3O6.82,90.000
Dy1Ba2Cu3O6.79,90.000
Y1Ba2Cu3O6.92,90.000
Hg1Ba2Cu1F1O4,90.000
Y1Ba1.95La0.05Cu3O6.98,90.000
Y1Ba1.95Cu2.95Co0.05O7,90.000
Y1Ba2Cu2.995Zn0.004O6.95,90.000
Y1Ba2Cu3O6.93,90.000
Y1Ba2Cu3O6.83,90.000
Bi2Sr2Ca1Cu2O8.245,90.000
Bi2Sr2Ca1Cu2O8.26,90.000
Y1Re0.1Ba2Cu2.9O7.08,90.000
Y1Re0.15Ba2Cu2.85O7.13,90.000
Sm1Ba2Cu3O6.858,90.000
Ca1La1Ba1Cu2.8P0.2O7,90.000
Ba2Ca2Cu3F2O6,90.000
Lu1Ru1B2,9.990
Y2C2I2,9.970
Hf0.6Zr0.4V2,9.970
Ba1Pb0.4Hg0.35Bi0.25O3,9.970
La1.86Ba0.14Cu1O4,9.960
Zr0.3Hf0.7V2,9.960
B2.4Nb1,9.960
B2.8Nb1,9.960
B3Nb1,9.960
Ca10Pt0.78Fe9.22As18,9.960
La1.5Nd0.4Ba0.1Cu1O4,9.950
La1.74Sr0.26Cu1O4,9.950
In1La3,9.950
Fe1Se0.9S0.1,9.940
V2Hf0.9Nb0.1,9.930
C1W1,9.930
Y1Ni1.4Pd0.6B2C1,9.920
Ta0.8W0.2C1,9.920
Nd1.83Ce0.17Cu1O4,9.900
Zr0.7Hf0.3V2,9.900
As0.1P0.9,9.900
Hf0.6V2Zr0.4,9.900
V2.742Zr0.258Ga1,9.900
Nb0.500Zr0.450Mo0.050,9.900
Nb0.500Zr0.250Ta0.250,9.900
Al1Nb3,9.900
Nb0.8Ta0.2C1,9.900
V0.65Si0.1Al0.25,9.900
Lu1Tc2,9.900
Fe1Se1,9.900
Mo1Re3,9.890
La1.78Sr0.22Cu0.995Zn0.005O4,9.880
Mo0.95Hf0.05C0.68,9.870
Tm1Rh4B4,9.860
Pr1Fe0.9Co0.1As0.7P0.3O1,9.860
Fe1Se0.95S0.05,9.860
Hf0.15Nb0.85,9.850
Pd0.02Rh0.31Zr0.67,9.850
Nb0.743Ga0.198Co0.059,9.850
Y2I2C2,9.850
Fe1Se0.88,9.840
La1Fe0.999Mn0.001As1F0.11O0.89,9.840
In1La3,9.830
V2Hf0.9Ta0.1,9.820
Ho0.6Lu0.4Ni2B2C1,9.820
Sr0.66Eu0.34Fe1.76Co0.24As2,9.820
Na1Fe0.995Co0.005As1,9.810
La0.81Rh4P12,9.810
La1.9Ba0.1Cu0.99Zn0.01O4,9.800
Nd0.8Pr0.2Ba2Cu3O6.75,9.800
La1.45Nd0.4Sr0.15Cu1O4,9.800
K1Os2O6,9.800
La1.71Sr0.25Ho0.04Cu1O4,9.800
Be22Os0.005Re1,9.800
Ga4Mo1,9.800
Mo3Re1,9.800
Nb0.05Re0.75Ta0.2,9.800
Nb0.5Sn0.25V0.25,9.800
Nb0.6Ti0.4,9.800
Ir2Nb3,9.800
V3Si0.4Sn0.6,9.800
V1Nb2Sn1,9.800
Al2C1Mo3,9.800
C0.984Nb1,9.800
Ir0.4Nb0.6,9.800
N1Zr1,9.800
Nb2Sn1V1,9.800
Nb0.454Ti0.176Zr0.370,9.800
Nb0.505Zr0.485Mo0.010,9.800
Y1Ni1.9Co0.1B2C1,9.800
C0.96Nb1,9.800
Nb0.25Ta0.75C1,9.800
Eu1.2Mo6S8,9.800
Tm1Rh4B4,9.800
B2.32Nb1,9.800
V0.75Si0.025Al0.225,9.800
Mo0.6Pt0.05Re0.35,9.800
Ir0.41Nb0.59,9.800
Y4Os4Si13,9.800
Ce1Fe0.9Co0.1As1F0.1O0.9,9.800
Ga41Mo8,9.800
Lu1Ru1B2,9.800
Eu2Sr1Bi2S4F4,9.800
Tm1Rh4B4,9.780
Li1Fe0.95Co0.05As1,9.780
Ca10Pt5Fe9As18,9.780
B2Nb0.83,9.770
Zr0.13Hf0.87V2,9.760
Be0.98Re0.02,9.750
In1La3,9.750
Dy0.2Tm0.8Ni2B2C1,9.750
K1Os2O6,9.730
Hf0.8Zr0.2V2,9.730
Nb1,9.710
La1.87Ba0.13Cu1O4,9.700
La1.7Ba0.3Cu1O4,9.700
Ga0.205V0.795,9.700
Be0.86Pb0.14,9.700
Nb0.75Ti0.15Zr0.1,9.700
Re0.6W0.4,9.700
Tc6Zr1,9.700
Nb0.18Re0.82,9.700
V3Si0.6Sn0.4,9.700
C0.987Ta1,9.700
Nb0.403Ti0.391Zr0.205,9.700
Nb0.8Ga0.15Cr0.05,9.700
Nb0.4Ta0.6C1,9.700
V0.63Si0.14Al0.23,9.700
Ir0.385Nb0.615,9.700
Nb0.5Zr0.5,9.700
In1La3,9.700
Ga0.159V0.841,9.700
Ga41Mo8,9.700
Mn0.3Fe0.7Se0.85,9.700
Fe0.9Se0.25Te0.75,9.700
La1Fe1Si1H1,9.700
Hf1V2,9.670
Be0.957Re0.043,9.670
La1Fe0.999Mn0.001As1F0.11O0.89,9.670
Be22Re1,9.650
Se1,9.650
Zr0.208V0.744Nb0.048,9.650
K1Os2O6,9.650
V0.782Zr0.218,9.640
Y0.56Er0.44Rh4B4,9.640
K1Os2O6,9.620
Be0.957Re0.043,9.620
Sn0.1Bi1.1Sb0.9Te2S1,9.620
Nb0.9Ti0.1,9.610
Nd1.85Ce0.15Cu0.996Co0.004O4,9.600
Ca0.3Ba1.45La1.25Cu3O6.96,9.600
La1.78Sr0.22Cu0.98Zn0.02O4,9.600
Sm0.75Gd1.1Ce0.15Cu1O3.97,9.600
La1.875Ba0.075Sr0.05Cu1O4,9.600
Li1.1Ti1.9O4,9.600
K1Os2O6,9.600
C1.58La1,9.600
Rh0.17Zr0.83,9.600
Nb3Rh0.02Pt0.98,9.600
Na2Cs0.93C60,9.600
Y2I1.2Br0.8C2,9.600
Hf0.1Nb0.9,9.600
Rh0.08Zr0.92,9.600
Sr1Fe1.82Ni0.18As2,9.600
Tm1Rh4B4,9.600
Ba1Fe1.894Co0.042Cu0.064As2,9.600
Sm1Fe0.9Rh0.1As1O1,9.600
Fe1Te0.9Se0.1,9.600
Ir0.58Rh0.36Se2,9.600
Na1Fe1As1,9.600
Fe1Se0.96S0.04,9.600
Zr0.203V0.725Nb0.072,9.580
Na1Fe1As1,9.580
Fe1Se0.96S0.04,9.580
Cd0.1In0.9La3,9.550
Be22Re1,9.550
La3In0.9Cd0.1,9.550
In1La3,9.540
Hf0.8Ta0.2V2,9.540
K1Os2O6,9.530
Ba0.5K0.5Fe1.9Mn0.1As2,9.530
Hf0.05Nb0.95,9.520
Fe1Se1,9.510
La1.78Sr0.22Cu0.98Zn0.02O4,9.510
Ba1Pb0.8Bi0.2O3,9.500
La1.88Ba0.12Cu1O4,9.500
La1.96Sr0.04Cu1O4,9.500
Pr1.48Y0.37Ce0.15Cu1O4,9.500
Pr0.925Gd0.925Ce0.15Cu1O4,9.500
Nd1.85Ce0.15Cu0.96Zn0.04O4,9.500
K1Os2O6,9.500
Be0.96Re0.04,9.500
C0.5Mo0.17Zr0.42,9.500
Ga2Mo1,9.500
Hf0.5Nb0.5,9.500
Ir0.3Mo0.4Re0.3,9.500
Rh0.14Zr0.86,9.500
Nb3Rh0.3Au0.7,9.500
Be9.8Re0.02,9.500
Mo1Ru1,9.500
Y1Ni1.9Co0.1B2C1,9.500
Er1Ni2B2C1,9.500
B2Ta1,9.500
Hf1Ru4P2,9.500
V3Ga0.6Si0.4,9.500
B2Nb1,9.500
Er1Ni1.96Fe0.04B2C1,9.500
Y0.47Er0.53Rh4B4,9.500
Sr1Fe1.826Co0.174As2,9.500
Bi2Te3,9.500
La1Bi1S2F0.6O0.4,9.500
P1,9.500
Fe0.99Ni0.01Se0.3Te0.7,9.500
Ti2Ge1C1,9.500
Hf0.95Ta0.05V2,9.490
Hf0.9Ta0.1V2,9.490
Hf0.2Nb0.8,9.480
Nb1,9.470
In1La3,9.460
Nb0.5Zr0.5,9.460
Zr0.87Hf0.13V2,9.450
Be22Re0.95W0.05,9.450
Be0.98Re0.02,9.450
In1La3,9.450
Nb0.35Zr0.65,9.450
Fe1Se1,9.450
Re0.77Mo0.23,9.430
La3In0.7Al0.3,9.420
Nb0.95Ti0.05,9.410
Ta0.4W0.6C1,9.410
Sr1Fe1.72Zn0.08Co0.2As2,9.410
La1.85Sr0.15Cu0.966Ni0.034O4,9.400
Na2Rb0.25Cs0.75C60,9.400
Li1.12Ti1.88O4,9.400
Nb0.55Ti0.45,9.400
Re0.9V0.1,9.400
V3Si0.68Ga0.32,9.400
Nb0.674Sn0.014Al0.178Ge0.133,9.400
La0.84Mo6Se8,9.400
Nb0.8Ga0.15Ni0.05,9.400
Nb0.6Ta0.4C1,9.400
Y1Th3.4Ru0.6B4,9.400
V0.784Ga0.172Al0.044,9.400
V0.683Ga0.22Al0.097,9.400
Nb1,9.400
Au1Ga40Mo8,9.400
K1Os2O6,9.400
C1,9.400
Re3W1,9.400
Fe1Se1,9.400
Mo1S2,9.400
La1Fe2As2,9.400
Fe1Se0.88S0.12,9.400
Cu0.7Nb0.3,9.390
La1.8Ba0.2Cu1O4,9.380
Bi0.1C1.45Y0.9,9.350
Y1.8Bi0.2C2.9,9.350
La1.52Nd0.4Sr0.08Cu1O4,9.340
Hf1V2,9.340
Be22Re1,9.330
Nb0.4Ta0.6C1,9.330
Ba1Fe1.678Ru0.322As2,9.310
Ba0.9K0.1Bi0.3Pb0.7O3,9.300
La1.881Ba0.119Cu1O4,9.300
B5Nb1.9Y0.1,9.300
Nb0.33Ti0.67,9.300
Nb0.35Ti0.15Zr0.5,9.300
Nb0.79Si0.21,9.300
Ho0.85Y0.15Ni2B2C1,9.300
Y0.85Gd0.15Ni2B2C1,9.300
Er1Ni2B2C1,9.300
Zr1Ru0.95Rh0.05P1,9.300
Li1Fe0.98Cu0.02As1,9.300
Eu0.85La0.15Fe1As2,9.300
Hf1V2,9.270
Nb0.999Y0.001,9.270
Hf1V2,9.260
C1Mo1,9.260
Nb0.98Y0.02,9.260
Ga0.3In0.7La3,9.250