formula,Tc,type
Bi3.16Ca2.29Cu1.39O2.15Sr3.22,109.0,original
Bi2.82Ca2.29Cu1.39O2.15Pb0.86Sr3.22,109.0,original
Ba1.72Ca1.05Cu0.75F0.93O1.56Tl8.96,109.0,original
Bi3.16Ca2.29Cu1.39O2.23Sr3.22,109.0,original
Bi2.57Ca2.29Cu1.39O2.15Pb1.02Sr3.22,109.0,original
Bi2.15Ca2.29Cu1.39O1.31Pb1.83Sr3.22,109.0,original
Ba1.72Ca1.05Cu0.76O1.31Tl8.96,108.0,original
Ba1.72Ca2.29Cu1.39O1.87Tl4.41,108.0,original
Bi0.29Ca2.29Cu1.39Hg5.04O1.63Sr3.22,108.0,original
Bi2.82Ca2.29Cu1.39O2.15Pb0.86Sr3.22,108.0,original
Bi2.66Ca2.29Cu1.39O2.15Pb0.86Sr3.22,108.0,original
Bi2.49Ca2.29Cu1.39O2.15Pb1.18Sr3.22,108.0,original
Ba1.72Ca1.05Cu0.76F8.26O0.59,108.0,original
Ba1.72Ca1.05Cu0.76O1.59Tl4.41,108.0,original
Bi0.8Ca2.29Cu1.39Nd0.84O2.15Pb3.13Sr3.22Tb2.74,108.0,original
Ba1.72Ca1.05Cu0.76O1.59Tl8.96,108.0,original
Ba1.72Ca1.05Cu0.76O1.58Tl8.96,107.0,original
Bi2.82Ca2.35Cu1.39O2.22Pb1.18Sr2.96,107.0,original
Ca3.54Cu2.02Ga1.1O2.43Sr3.22,107.0,original
Ca3.54Cu2.02Ga1.1O2.46Sr3.22,107.0,original
Bi0.29Ca2.29Cu1.39Hg5.04O1.69Sr3.22,107.0,original
Bi0.63Ca2.29Cu1.39Hg3.57O1.69Sr3.22,107.0,original
Ba1.72Ca2.29Cu1.39Hg7.24O1.65,107.0,original
Bi2.82Ca2.29Cu1.39O2.15Pb0.86Sr3.22,107.0,original
Ca2.67Cu2.34O2.6Sr4.45V0.34,107.0,original
Ba1.72Ca1.05Cu0.76O1.59Tl8.96,107.0,original
Bi3.16Ca2.29Cu1.39O2.15Sr3.22,107.0,original
Bi2.66Ca2.29Cu1.39O2.15Pb0.86Sr3.22,107.0,original
Ba1.72Ca3.54Cu2.65,106.0,original
Ca2.29Cu1.39Hg5.41Sr3.22,106.0,original
Ba1.72Ca1.05Cu0.76O1.59Tl8.96,106.0,original
Ba1.72Ca1.05Cu0.75O1.59Tl8.96,106.0,original
Ba1.72Ca1.05Cu0.76F7.21O0.64,106.0,original
Bi2.49Ca2.29Cu1.39O2.18Pb1.18Sr3.22,106.0,original
Ca2.29Cu1.39O2.18Pb1.18Sr3.22,106.0,original
Ca0.8Cu0.76O1.31Pb1.51Sr3.22Tl2.14Y0.13,106.0,original
Ba1.72Ca2.29Cu1.39O2.15Tl8.96,105.0,original
Bi1.47Ca1.05Cu0.13Sr1.46,105.0,original
,105.0,original
Ba0.64Ca2.29Cu1.39O1.87Sr1.46Tl4.41,105.0,original
Ba1.72Ca1.05Cu0.76O1.59Tl4.41,105.0,original
Ba1.72Ca1.05Cu0.76Hg7.24O1.07,105.0,original
Ba1.72Ca2.29Cu1.39Hg7.24O1.65,105.0,original
Ba1.72Ca1.05Cu0.76O1.59Tl8.96,105.0,original
Ba1.72Ca3.54Cu2.02F6.16O1.81,105.0,original
Bi2.15Ca2.17Cu1.39O1.31Pb1.83Sr3.22,105.0,original
Bi2.49Ca2.29Cu1.39O2.12Pb1.18Sr3.22,105.0,original
Ba1.72Ca0.86Cu0.89O1.59Tl8.05,104.0,original
Bi0.29Ca2.29Cu1.39Hg5.04O1.77Sr3.22,104.0,original
Ba1.72Ca1.05Cu0.76O1.59Tl8.96,104.0,original
Ba1.72Ca2.29Cu1.39Hg7.24O1.65,104.0,original
Bi2.49Ca2.29Cu1.39O2.18Pb1.02Sr3.22,104.0,original
Ca2.29Cu1.39O2.18Pb1.02Sr3.22,104.0,original
Bi1.47Ca2.29Cu1.39O2.15Pb3.13Sr3.22,104.0,original
Ba1.72Ca2.29Cu1.39Hg3.57O1.72Pb1.51,103.0,original
Ca2.29Cr0.23Cu1.71O2.02Sr3.22,103.0,original
Ba1.72Ca3.91Cu2.02O2.68Tl7.14,103.0,original
Ba1.72Ca1.05Cu0.76O1.59Tl8.96,103.0,original
Ba1.72Ca0.92Ce0.41Cu0.75F0.93O1.56Tl8.96,103.0,original
Ba1.72Ca0.8Ce1.01Cu0.76O1.59Tl8.96,103.0,original
Ba1.72Ca3.54Cu2.02F5.12O1.87,103.0,original
Bi2.49Ca2.29Cu1.39O2.18Pb0.86Sr3.22,103.0,original
Ca2.29Cu1.39O2.18Pb0.86Sr3.22,103.0,original
Bi2.49Ca2.29Cu1.39O2.17Pb1.18Sr3.22,103.0,original
Ba1.72Ca0.61Cu0.76O1.31Tl4.41Y0.49,102.0,original
Ba1.72Ca1.05Cu0.76O1.59Tl8.96,102.0,original
Bi2.49Ca2.29Cu1.39Pb1.18Sr3.22,102.0,original
Bi0.12Ca2.29Cu1.39Hg5.77O1.69Sr3.22,102.0,original
Ca1.05Cu0.76Nd0.64O1.31Pb1.51Sr2.94Tl2.14,102.0,original
Ba1.72Ca1.05Cu0.76Hg7.24O1.07,102.0,original
Ba1.72Ca3.54Cu2.02F6.16O1.81,102.0,original
Ba1.72Ca2.29Cu1.39F8.26O1.15,102.0,original
Ca0.8Cu0.76O1.31Sr3.22Tl4.41,102.0,original
Ba1.72Ca2.29Cu1.39Hg7.24O1.64,101.0,original
Ba1.72Ca1.05Cu0.75F1.45O1.55Tl8.96,101.0,original
Ba4.96Cu4.54O4.38Y6.83,101.0,original
Ba1.72Ca0.8Cu0.76Nd0.84O1.27Tl4.41,100.0,original
Ca3.54Cu2.02Ga1.1O2.4Sr3.22,100.0,original
Ca2.29Cu1.39O2.71S0.39Sr3.22,100.0,original
Ba1.72Ca1.05Cu0.76Hg7.24O1.12,100.0,original
Ba1.72Ca0.92Ce0.41Cu0.76O1.59Tl8.96,100.0,original
Tc11.71,11.0,original
As14.67Ca12.24Fe12Pt8.17,11.0,original
Bi1.47F2.5La1.11S2.07,11.0,original
C0.24Co2.14Ni1.06Th3.56,11.0,original
Nb1.1,11.0,original
N1.51Ta5.24,11.0,original
Ce0.71Cu0.13Gd4.51O0.48Sm9.16,11.0,original
Cu0.12La2.26O0.48,11.0,original
Li18.98O0.48Ti11.55,11.0,original
Hf0.41Mo1.03,11.0,original
Cu0.45Mo5.47S6.54,11.0,original
Nb0.37Tc7.14,11.0,original
Si0.25Ti1.16V2.08,11.0,original
Nb0.71,11.0,original
B1.62Ni4.04Y2.04,11.0,original
Nb0.85Zr0.62,11.0,original
Au7.51Nb3.63,11.0,original
C0.41Lu1.25Th5.76,11.0,original
Eu0.58Mo7.78S8.78Sn0.85,11.0,original
Mo0.85Zr0.62,11.0,original
Sc4.95Tc24.69,11.0,original
B2.15Nb1.1,11.0,original
Fe1.02Te1.72,11.0,original
As0.65Fe0.89La1.11,11.0,original
As0.48Co0.32Fe0.89P0.29Pr0.75,11.0,original
As14.67Ca11.93Fe12.54Lu0.74Pt7.15,11.0,original
As1.47Ba0.64Fe2.07Ni0.26,11.0,original
As0.65F0.46Fe1.02La1.1,11.0,original
F0.15Fe1.02La1.11P1.4,11.0,original
Ir5.11Nb6.17,11.0,original
Bi2.32Cu0.13La0.54O1.07Pb1.51Sr2.16,11.0,original
Cu0.12La2.33O0.48,11.0,original
Mo2.35,11.0,original
C0.13Y1.8,11.0,original
Cu0.13Mo3.59S4.3,11.0,original
Nb0.15Sn0.11Ta2.56,11.0,original
Nb0.91Zr0.42,11.0,original
Ga1.1V2.26,11.0,original
Au6.89Nb3.63,11.0,original
Nb1.1Sn0.78Ta10.6,11.0,original
Nb0.67Zr1.12,11.0,original
Rh1.7Zr7.55,11.0,original
Cu0.76Mo7.34S8.78,11.0,original
H0.29Rh1.7Zr7.55,11.0,original
Au7.67Nb3.63,11.0,original
La1.11Mo7.34Se4.83,11.0,original
B1.62Er6.1Lu0.58Ni4.79,11.0,original
V0.54,11.0,original
Nb0.72Zr,11.0,original
Zr3.31,11.0,original
C0.36Y3.96,11.0,original
Os12.44Si4.95Y11.62,11.0,original
Fe1.02Se0.42,11.0,original
As0.4Fe1.02La1.11P0.47,11.0,original
As1.47Ca1.05Co1.23Fe1.92,11.0,original
As0.65Fe0.96Li7.24,11.0,original
Hf9.88P1.78Ru2.65,11.0,original
As0.65Fe0.98Na3.91,11.0,original
As1.47Ca1.05Fe2.25,11.0,original
As0.65F0.46Fe0.98La0.83Mn0.38Y0.13,11.0,original
Mo1.1S2.07,11.0,original
Nb0.47Zr1.77,11.0,original
Nb0.59Zr1.39,11.0,original
N4.32Ta5.24,11.0,original
Cu0.13La2.39O0.48,11.0,original
P1.78,11.0,original
C0.13Ti0.29Y1.8,11.0,original
N5.82Zr3.7,11.0,original
Ga0.19Si0.18V2.32,11.0,original
Cu0.64Mo7.34S8.78,11.0,original
C0.24Cl1.99I17.96Y4.44,11.0,original
B1.62Ni4.04Pd0.51Y2.04,11.0,original
Nb0.97Zr0.23,11.0,original
Ga0.99V2.32,11.0,original
C0.36Ti0.72Y3.96,11.0,original
Mo7.78S8.78Sn0.95,11.0,original
Eu1.27Mo7.78S8.78Sn0.74,11.0,original
Fe1.02Se0.33Te0.29,11.0,original
Ba0.64Bi0.21Hg2.83O0.2Pb1.02,11.0,original
Fe1.02Se0.47,11.0,original
Hf8.29V1.53,11.0,original
Au3.79B1.62La1.11Pt3.5,11.0,original
Cu0.13La1.76Nd1.84O0.48,11.0,original
Ba1.72Cu1.39O1.21Pr0.21Sm4.73,11.0,original
Mo0.6Re0.54,11.0,original
Mo0.6Re0.53,11.0,original
Mo0.47Re0.53,11.0,original
B1.62Ni3.8Y2.04,11.0,original
Ga0.13Nb0.85,11.0,original
B1.62Dy3.6Ni4.79Y1.21,11.0,original
Mo7.34Pb3.13S8.22Se0.23,11.0,original
B1.62Gd1.25Ni4.79Y1.68,11.0,original
V0.5,11.0,original
Mo0.28Re0.5,11.0,original
Nb0.66Zr1.19,11.0,original
Eu1.97Mo7.78S8.78Sn0.64,11.0,original
B3.4Rh7.17Y2.04,11.0,original
B1.62Lu3.29Ru2.65,11.0,original
As1.47Ba0.64Co0.9Fe2.01,11.0,original
Fe1.02Se0.48,11.0,original
Fe1.02Se0.45,11.0,original
Fe0.89Se0.45Sm0.57,11.0,original
Fe0.89Se0.45,11.0,original
As0.65Co0.21Fe0.93Na3.91,11.0,original
Ga0.12V0.54,11.0,original
As0.65FeLi7.24,11.0,original
Au1.79Nb0.79,11.0,original
Tc11.96,11.0,original
Ce0.71Cu0.13Nd7.7O0.48Y0.31,11.0,original
Cu0.13La2.08Nd0.84O0.48,11.0,original
Ce0.71Cu0.13Gd3.24O0.48Sm10.13,11.0,original
Br22.17Ca2.07Cu0.13Na0.64,11.0,original
Li7.61O0.48Ti8.31,11.0,original
Ta2.3W2.85,11.0,original
Mo1.1Ru2.65,11.0,original
Nb1.1Tc37.06,11.0,original
Ga0.27Si0.15V2.32,11.0,original
Si0.24V2.32,11.0,original
Nb3.63Sb0.71Sn0.2,11.0,original
Mo7.34S8.78Sn0.78,11.0,original
Cu1.14Mo7.34S8.78,11.0,original
B1.62La1.11Pt4.72,11.0,original
B1.62Pt4.72Y2.04,11.0,original
B1.62Ni3.3Y2.04,11.0,original
B1.62Co0.5Lu3.29Ni4.62,11.0,original
Rh1.7Si0.25Zr3.7,11.0,original
B1.97La1.11Pt4.96,11.0,original
Br6.62C0.24I14.36Y4.44,11.0,original
Br7.73C0.24I13.33Y4.44,11.0,original
Mo0.72Re0.39,11.0,original
Ga0.18Si0.18V2.32,11.0,original
N5.7Nb0.15Ti3.11,11.0,original
Ir0.58Nb0.53,11.0,original
N4.52Nb1.1,11.0,original
Mo0.85Ta0.96,11.0,original
As1.47Ba0.64Co0.21Fe2.2,11.0,original
Cl1.41Fe1.02Se0.43,11.0,original
Fe1.02Te1.88,11.0,original
As1.47Ba0.45Fe2.3K0.85,11.0,original
As0.65F0.67Fe1.02La1.11,11.0,original
As0.21Fe1.02H0.26P0.9Sm6.8,11.0,original
As3.12Ca1.05Fe4.61K5.32Ni0.3,11.0,original
B1.62Gd1.16Ni4.79Y1.71,11.0,original
Nb0.15Zr2.74,11.0,original
Hf8.58Ta0.58V1.53,11.0,original
Ir3.71Nb6.17Pt1.8,11.0,original
Fe1.02Se0.5,11.0,original
Ba1.24Cu1.39La1.47O1.31,11.0,original
Bi3.08Cu0.13La0.25O1.15Sr2.6,11.0,original
Cu0.13La2.37O0.48,11.0,original
Li8.12O0.48Ti8,11.0,original
Li7.75O0.48Ti8.22,11.0,original
Zr3.58,11.0,original
Tc11.09W0.46,11.0,original
Si0.25V2.25,11.0,original
Nb0.47Ta0.15Zr1.58,11.0,original
B1.62Ni2.9Pd1.45Y2.04,11.0,original
B1.62Ni3.15Pd1.24Y2.04,11.0,original
V0.52,11.0,original
B3.4Er1.22Rh7.17Y1.64,11.0,original
Fe1.02Se0.54,11.0,original
Br2.73C0.24I17.96Y4.44,11.0,original
C0.24Co3.05Ni0.56Th3.56,11.0,original
Fe1.02Se0.44,11.0,original
Ba0.64Bi0.16O0.2Pb2.42,11.0,original
Ce0.71Cu0.13O0.48Sm10.77Y0.31,11.0,original
Li7.97O0.48Ti8.09,11.0,original
Al0.98V2.32,11.0,original
Nb0.47Ti2.02,11.0,original
Nb0.47Ti0.29Zr1.39,11.0,original
Nb0.47Ta0.42Zr1.39,11.0,original
Cu0.32Mo7.34S8.78,11.0,original
As9.72La1.11Ru11.04,11.0,original
B1.62Ni4.77Tm7.72,11.0,original
Ga0.18Nb0.77,11.0,original
B1.62Ni3.65Pd0.84Y2.04,11.0,original
B1.97La0.97Nd0.35Pt4.96,11.0,original
V0.51,11.0,original
C0.41Lu0.58Th6.49,11.0,original
As0.65F0.46FeLa1.11,11.0,original
As0.44Fe1.02La1.11P0.38,11.0,original
Ga1.1P1.78,11.0,original
P1.78Ru2.51Zr3.7,11.0,original
P1.78Ru2.65Zr3.7,11.0,original
Bi4.85Pb22.59,11.0,original
FeSe0.11Te1.63,11.0,original
Mo0.78Re0.32,11.0,original
Fe1.02Se0.49,11.0,original
B1.62Er7.65Ni4.74,11.0,original
Ir4.06Nb6.17Pt1.32,11.0,original
Bi1.47F1.98La1.11S2.07,11.0,original
Bi1.47K4.5O0.2,11.0,original
Ba0.64Bi0.12O0.2Pb2.48,11.0,original
La0.94Mo7.34Se4.83,11.0,original
As2.3K10.77Mo3.59,11.0,original
Cu0.13La2.46O0.48,11.0,original
Bi1.47K5.32O0.2,11.0,original
Bi1.56K5.05O0.2,11.0,original
Bi1.64K4.77O0.2,11.0,original
Bi1.81K4.23O0.2,11.0,original
Cu0.13La2.12O0.47Sr0.22,11.0,original
Co0.32Ga5.72Pu33.39Rh1.52,11.0,original
Mo0.88Ti0.59,11.0,original
Ir0.1Rh0.1Zr2.74,11.0,original
Ga1.1V2.32,11.0,original
Nb0.43Ti0.26Zr1.52,11.0,original
Nb0.46Zr1.79,11.0,original
Eu3.35Mo7.34S8.78Sn0.34,11.0,original
B1.62Ni4.64Y2.04,11.0,original
Au4.57B1.62La1.11Pt3.5,11.0,original
B1.62Ho8.21Ni4.79Y0.25,11.0,original
Al0.18Ge0.23Nb3.89,11.0,original
Mo7.34Pb2.16Se4.83Yb2.91,11.0,original
Mo0.66Re0.47,11.0,original
Ga0.11V0.56,11.0,original
Hf3.2N5.82Nb0.68,11.0,original
Mo0.53Re0.54,11.0,original
B1.35Mg3.17,11.0,original
Eu3.35Mo7.78S8.78Sn0.42,11.0,original
As0.65Fe1.02La1.11,11.0,original
As1.47Co1.16Eu4.73Fe1.94Sr0.22,11.0,original
B1.62Ce0.11La3.91N15.88Ni4.79,11.0,original
Ge1.57Pt4.72Sr1.46,11.0,original
As0.65Fe1.02Na3.91,11.0,original
Fe1.05S0.17Te1.13,11.0,original
Ce0.71Cu0.13Gd6.68Nd5.34O0.48,11.0,original
Ba1.72Cu1.39O1.31Pr0.4Y0.73,11.0,original
Ba1.72Cu1.39O1.15Y2.04,11.0,original
Ba1.72Cu1.39O1.14Y2.04,11.0,original
Hf4.89V1.53Zr1.77,11.0,original
Cu0.13Ho0.36La2.13O0.48Sr0.14,11.0,original
Au0.69C0.12Y1.8,11.0,original
Be11.83Mg3.17Re1.43,11.0,original
Ta2.56W2.59,11.0,original
Mo0.22Re0.84,11.0,original
N5.23Ti3.7,11.0,original
Nb0.72Ti1.16,11.0,original
Al0.35Si0.11V2.32,11.0,original
Ga1.1V2.21,11.0,original
Hf1.37Nb0.55Zr0.96,11.0,original
Hf0.45Nb0.49Zr1.48,11.0,original
B1.62Cu0.13Ni2.3Y2.04,11.0,original
Cu0.76I20.53Y4.44,11.0,original
B1.62Ni3.45PdY2.04,11.0,original
Zr3.35,11.0,original
Au1.47C0.34Y3.96,11.0,original
Eu2.66Mo7.78S8.78Sn0.53,11.0,original
Ga0.18Mn0.65V0.54,11.0,original
B3.4Rh7.17Y2.02,11.0,original
As0.65F0.46Fe1.02La1.11,11.0,original
P1.78Ru2.62Zr3.7,11.0,original
As0.65F0.46Fe0.99La0.83Mn0.31Y0.13,11.0,original
F0.62Fe1.02La1.11P1.4,11.0,original
Nb0.7Zr1.08,11.0,original
Br8.28C0.24I12.81Y4.44,11.0,original
As0.65Fe1.01La1.11,11.0,original
Nb0.78Ti0.94,11.0,original
B1.62Ni4.79Tb3.44Y1.44,11.0,original
Fe1.02Se0.28Te0.49,11.0,original
Ba1.72Cu0.13O1.03Tl8.96,10.0,original
Cu0.13La2.39O0.48,10.0,original
Ce0.71Cu0.13Eu10.62La0.11O0.48,10.0,original
Ca16.72Cu14.61O11.03Sr0.4,10.0,original
Bi3.08Cu0.13La0.25O1.09Sr2.6,10.0,original
Ba1.29Cu1.39O1.17Sr0.4Yb9.91,10.0,original
Ce4.01Cu0.76O1.85Sr3.22Y2.76,10.0,original
Ca7.27Cr0.23Cu4.22O4.13Sr3.22,10.0,original
Ba0.64Ca1.05Cu1.39Nd3.09O1.31Pr0.24,10.0,original
Ce0.71Cu0.13O0.48Sm11.41,10.0,original
Cu0.13La0.97O0.48Pr0.63Sr0.14,10.0,original
Ba1.72Cu1.34O1.22Y2.04Zn0.15,10.0,original
Ba1.72Cu1.34O1.21Y2.04Zn0.15,10.0,original
Cu0.13La1.8Nd1.84O0.48,10.0,original
Ba1.72Cu1.2Dy10.45Fe0.13O1.3,10.0,original
Ba1.72Cu1.39O1.3Pr0.36Y0.85,10.0,original
Cu0.13La2.12O0.48Sr0.22,10.0,original
Bi3.16Cu0.13O1.06Sr3.22,10.0,original
Bi3.16Cu0.13O1.08Sr3.22,10.0,original
Ba1.72Cu1.98O1.59Pr0.13Y1.56,10.0,original
Ce0.59Cu0.13O0.48Pr1.42,10.0,original
Ba1.35Cu1.39Gd8.95O1.3Pr0.24,10.0,original
Cu0.13Eu1.27La2.03O0.48,10.0,original
Br22.17Ca2.11Cu0.13Na0.54,10.0,original
Co3.5Ga5.72Pu33.39,10.0,original
Ce0.71Cu0.13La2.33O0.48,10.0,original
Au5.34Nb3.63Pt0.59,10.0,original
C0.94Ca1.05,10.0,original
Ba8.19Ge38.41,10.0,original
La3.98Se2.38,10.0,original
Ba3.88Cu3.91O3.41Pr1.53,10.0,original
Al0.11Nb0.82,10.0,original
W2.59,10.0,original
Mo7.78Pb2.16S8.78Sn0.21,10.0,original
N5.82Nb1.1,10.0,original
Hf0.17Nb0.48Zr1.64,10.0,original
As0.65Ga1.1,10.0,original
C0.13Y2.04,10.0,original
B0.73Lu3.29Pd8.06,10.0,original
B1.62Cu0.76Y2.04,10.0,original
B1.62Ni4.79Tm7.72,10.0,original
Cu0.64Mo7.34S8.78,10.0,original
Mo0.78Re0.32,10.0,original
Mo0.56Re0.59,10.0,original
Cl8.18Li10.17N5.82Zr3.7,10.0,original
B1.62Ho4.89Lu1.76Ni4.79,10.0,original
Rh0.66Ta2.78,10.0,original
Ta3.1W2.06,10.0,original
B1.62La1.11Pt4.72,10.0,original
As0.65Ce5.81Co0.32Fe0.89,10.0,original
Ba0.64Bi0.21Hg0.62O0.2Pb1.99,10.0,original
Li6.5Mo7.34O4.1,10.0,original
Fe0.96Se0.54,10.0,original
C0.94Ca1.05H3.58,10.0,original
As0.65Fe0.77Nd4.84Rh0.24,10.0,original
Fe1.02Se0.45,10.0,original
B3.4Er2.15Rh7.17Y1.35,10.0,original
As0.65Co0.55Fe0.83Sm6.8,10.0,original
As1.47Ba0.46Fe2.3K0.82,10.0,original
As1.47Ba0.51Fe2.3K0.52,10.0,original
As1.47Ca0.8Fe1.02Pr0.13,10.0,original
As0.65Ce5.81Co1.05Fe0.69H3.58,10.0,original
As0.98Eu6.81Fe2.3P1.03,10.0,original
As1.47Ba0.45Fe2.3K0.83,10.0,original
Bi1.47F2.5La0.4S2.07,10.0,original
As1.47Fe2.3K4.34,10.0,original
Ge0.73Nb2.37,10.0,original
Te4.87Zr3.7,10.0,original
Ga47.26Mo1.1,10.0,original
Al2.03La1.11,2.0,original
Au2.24Te1.63,2.0,original
Ir5.11La2.55Si1.59,2.0,original
Ag0.37Bi6.37O0.48S3.19,2.0,original
Ni4.79S1.62Se0.17Tl4.41,2.0,original
Pd0.54Zr2.48,2.0,original
Nb0.12U2.74,2.0,original
Ni7.28Th25.48,2.0,original
Ir1.08Y0.39,2.0,original
O0.2Rb1.47W5.25,2.0,original
Ni0.56Th2.47,2.0,original
W5.06,2.0,original
Nb0.85Pd0.31,2.0,original
O0.2Rb1.82W5.25,2.0,original
La3.98Pd8.06Si1.26,2.0,original
Ni4.79S1.4Se0.29Tl4.41,2.0,original
Mo1.1Rh1.7,2.0,original
Mo0.22U2.46,2.0,original
Ga2.26La1.11Ni2.3,2.0,original
Co5.32Rh8.63Sn15.78Tm38.84,2.0,original
Al3.08Pd3.98U3.47,2.0,original
Ce5.06Co4.41In8.92Yb1.16,2.0,original
Re1.4,2.0,original
Nb3.63Rh1.61,2.0,original
V0.66,2.0,original
Nb1.09Sb1.15Ti8.57,2.0,original
Au2.09Te1.68,2.0,original
I41.11Sn0.78,2.0,original
Ni4.79S0.95Se0.54Tl4.41,2.0,original
Ag0.16Ti3.8,2.0,original
Nb0.89Sb0.12,2.0,original
Os3.03Ta5.24,2.0,original
Mo7.34S8.78Tm9.27,2.0,original
Lu3.96Mo7.34S8.78,2.0,original
Ta4.44W0.73,2.0,original
Hf7.89Rh0.24,2.0,original
Nb0.15Sb0.22Ti2.02,2.0,original
Ti3.54,2.0,original
Ga10.33Rh3.52,2.0,original
Nb3.63Te9.86,2.0,original
Co18.05La3.98Sn11.37,2.0,original
Ge1.74La1.11Pt4.23,2.0,original
Co8.96La3.98Sn11.37,2.0,original
Ag1.32Sn0.49Te2.37,2.0,original
Ag1.61Sn0.42Te2.37,2.0,original
Ir1.62Se0.23Te3.62,2.0,original
Hf9.88Pd0.1Rh1.52Si0.25,2.0,original
Na3.62P3.64Sn1.66,2.0,original
La1.11Ni1.3Pt0.83Si0.25,2.0,original
C1.29Hg7.24K5.32,2.0,original
In1.23Pb7.18Y2.04,2.0,original
B0.73Ta2.56W7.9,2.0,original
In1.68La3.98Pr0.55,2.0,original
Al3.08Pd3.98U3.51,2.0,original
Re1.41,2.0,original
Re1.35,2.0,original
Re1.34,2.0,original
In0.16Sn0.49Te2.37,2.0,original
Ce5.81Co0.18Ru5.25,2.0,original
Pd0.14Se1.15Ti4.19,2.0,original
Ce5.81Co4.41In8.87,2.0,original
Mn0.23Ni0.49Zr2.57,2.0,original
Au7.67Tl4.41,2.0,original
La1.09Ru5.45,2.0,original
Pd3.98Sn0.78Tm7.72,2.0,original
La9.72Ru8.24,2.0,original
Cu0.13Rh3.12Se2.38,2.0,original
Re1.36,2.0,original
Ru5.45Zr3.7,2.0,original
Ce0.13La1.04Sn2.54,2.0,original
Ir1.41Pt0.15Te4.87,2.0,original
Cd0.6Ce5.81Co4.41In8.82,2.0,original
Ce4.61Co4.41In8.92Yb1.91,2.0,original
Bi1.47Ce1.61Pr0.52S2.07,2.0,original
Mo0.47Rh0.79,2.0,original
U3.11,2.0,original
Mo1.1Se0.11Te4.12,2.0,original
C0.24Li7.24,2.0,original
Au7.67Ga2.26,2.0,original
Ga2.26Pt2.29,2.0,original
Ge0.73Nb2.37,2.0,original
Mn0.24Ti4.1,2.0,original
S0.95Y2.04,2.0,original
Sn0.2Te1.5,2.0,original
P5.5W5.25,2.0,original
Co0.32Nb3.63Rh1.52,2.0,original
Ir1.62Nb3.63,2.0,original
S2.07Ta5.24,2.0,original
Ir6.85Si3.27Tm38.84,2.0,original
B3.4Ho10.97Ir6.15Rh0.6,2.0,original
V0.58,2.0,original
Hf8.88,2.0,original
Ti4.06,2.0,original
Rh10.81Sc19.99Sn16.67,2.0,original
Au15.42In1.68Y2.04,2.0,original
Nb0.8Pd0.39,2.0,original
Rh7.17Sn11.37Th10.87,2.0,original
Ge15.81Rh10.81Sc19.99,2.0,original
Fe2.3K4.23S1.6Se0.18,2.0,original
Sn0.73Te2.37,2.0,original
Sn0.7Te2.37,2.0,original
Sn2.54Zr19.11,2.0,original
Lu3.29Pt4.72Si0.58,2.0,original
Pd3.98Sb2.38Sr1.46,2.0,original
U3,2.0,original
Be12.81U3.54,2.0,original
Ce5.81Co4.09In8.92,2.0,original
Pd1.84Te4.87,2.0,original
Pd1.94Te5.12,2.0,original
Nb0.59Os1.15,2.0,original
Li6.5Mo7.34O4.1,2.0,original
Ho5.45Ir6.85Lu15.14Si3.27,2.0,original
V0.69,2.0,original
Nb0.75Pd0.47,2.0,original
Au2.49Te1.55,2.0,original
Bi1.47Ce5.81F2.5S2.07,2.0,original
Ce5.69Co4.41In8.92Yb0.12,2.0,original
Ba0.64Nb1.1S3.19,2.0,original
Bi1.47K3.41O0.2,2.0,original
Ag0.37Sn0.66Te2.37,2.0,original
Pd1.94Te2.57,2.0,original
B1.62La0.4Rh5.35Y0.85,2.0,original
La0.9Pb9.62,2.0,original
Os0.16Re1.31,2.0,original
Al3.08Pd3.98U3.58,2.0,original
As0.65Rh0.29Ru2,2.0,original
Os0.15Re1.31,2.0,original
Ge1.4La1.11,2.0,original
In0.16Sn0.45Te2.37,2.0,original
Th2.83,2.0,original
Os12.44Pr0.75Sb14.68,2.0,original
Pb3.09Te2.37,2.0,original
Co1.23Ni1.55Zr7.55,2.0,original
Nb2.37Pd1.94S3.74Se0.85,2.0,original
Ge1.7La1.11Pt4.36,2.0,original
B0.73Li14.58Pt7.15,2.0,original
Fe3.58Th25.48,2.0,original
Ta4.39W0.78,2.0,original
N5.46Nb0.68V0.2,2.0,original
N5.46Nb0.47V0.34,2.0,original
Zr3.68,2.0,original
V0.7,2.0,original
Ce0.14La1.04Sn2.54,2.0,original
B0.73I30.82,2.0,original
Ce5.81Co4.18In8.92,2.0,original
Ir1.62Mo1.1,2.0,original
La0.68Y0.37,2.0,original
Nb0.16U2.6,2.0,original
Pb9.62Sr1.46,2.0,original
Pd1.67Te4.87,2.0,original
Pd1.94Te5.62,2.0,original
U3.18,2.0,original
La2.55Rh5.35Sn4.31,2.0,original
Hf9.88Os6.17,2.0,original
Au1.85Te1.75,2.0,original
Sn0.74Te2.37,2.0,original
As2.3Cr1.47Cs21.05,2.0,original
Ir1.62Si0.25Zr3.7,2.0,original
Hf9.88Pd0.31Rh1.33Si0.25,2.0,original
Bi1.47Lu3.29Pd1.94,2.0,original
As0.65Cr0.48,2.0,original
As1.47Co0.17Fe2.21K5.32,2.0,original
Re1.39,2.0,original
Ce5.81In8.92Ir0.32Rh1.24,2.0,original
Os12.44Pr0.71Sb14.68,2.0,original
Au15.42Bi1.47,2.0,original
Be0.69Zr0.34,2.0,original
Re1.42,2.0,original
Nb0.71Pd0.53,2.0,original
Nb0.66Pd0.61,2.0,original
Ce5.6Co4.41In8.92,2.0,original
Ce5.31Co4.41In8.92Yb0.76,2.0,original
As1.47Cs10.49Fe2.3,2.0,original
Ba0.64Pt4.72Sb2.38,2.0,original
Co13.5Th25.48,2.0,original
Re0.94Y0.44,2.0,original
Re2.92Y2.04,2.0,original
B3.4Er7.65Ir6.15Rh0.6,2.0,original
Fe2.3Ge1.57Y2.04,2.0,original
Cd0.54Ce5.81Co4.41In8.83,2.0,original
V0.65,2.0,original
Ce5.81Ir8.59,2.0,original
Pd3.98Sn0.78Yb9.91,2.0,original
B0.73Mo1.72Ta2.56,2.0,original
Pd0.12Se1.15Ti4.19,2.0,original
Ce5.81Co4.41In8.47Zn0.48,2.0,original
Ce5.81In8.92Rh1.7,2.0,original
Ir0.74Mo0.48,2.0,original
Cu0.13O0.47Sm12.69Th0.46,2.0,original
Os12.44Pr0.73Sb14.68,2.0,original
Os12.44Pr0.59Sb14.68,2.0,original