formula,Tc
Nd1Fe1As0.4P0.6F0.1O0.9,22.600
La1Fe1Mn0As1F0.11O0.89,22.600
Y1Ba2Cu3O6.41,22.500
Nd1.847Ce0.153Cu1O4,22.500
Nd1.85Th0.15Cu1O4,22.500
Y1Ba2Cu3.7Zn0.3O8,22.500
La1.45Nd0.4Sr0.15Cu1O4,22.500
Ba0.55K0.45Bi1O3,22.500
Pr1.85Ce0.15Cu1O4,22.500
Nd1.85Ce0.15Cu1O4,22.500
La1.91Ce0.09Cu1O4,22.500
Ba1Fe1.852Co0.148As2,22.500
Ba1Fe1.125Ru0.875As2,22.500
La1.85Sr0.15Cu0.982Ni0.018O4,22.500
Ca10Pt4.6Fe9.4As18,22.500
Ca4Al2Fe2As1.6P0.4O6,22.500
Ba1Fe1.86Co0.14As2,22.500
La1.885Sr0.115Cu0.998Zn0.003O4,22.460
La1.92Sr0.08Cu1O4,22.400
Y1Ba2Cu3.9Zn0.1O8,22.400
Pr1.85Ce0.15Cu0.96V0.04O3.98,22.400
Ba1Fe2As1.28P0.72,22.400
Tl1Fe1.7Se2,22.400
Ba1Fe1.86Co0.14As2,22.400
Ba0.88La0.12Fe2As2,22.400
La1Fe1As0.75P0.25F0.05O0.95,22.380
La1.85Sr0.15Cu0.988Zn0.013O4,22.300
La1.8Sr0.2Cu1O4,22.300
Pr1.85Ce0.15Cu0.98V0.02O3.98,22.300
Sm1.857Ce0.143Cu1O4,22.300
Ba1Fe1.86Co0.14As2,22.300
Ba0.5K0.5Fe1.9Cu0.1As2,22.290
La1.914Sr0.086Cu1O4,22.250
La1.85Sr0.15Cu0.98Ni0.02O4,22.200
Nd1.75Sm0.1Ce0.15Cu1O3.972,22.200
Ba0.51K0.49Bi1O2.974,22.200
Li1Hf1N1I1,22.200
Ba1Fe1.852Co0.148As2,22.200
Ba1Fe1.848Rh0.152As2,22.200
Ca1Fe0.92Rh0.08As1F1,22.200
Rb0.8Fe2Se1.75Te0.25,22.200
Ca9.07La0.93Pt3Fe10As18,22.200
Ca9.1La0.9Pt3Fe10As18,22.200
La1.85Sr0.15Cu0.985Zn0.015O4,22.100
Nd1.85Ce0.15Cu1O3.95,22.100
La1.892Ba0.108Cu1O4,22.100
La1.83Sr0.17Cu0.98Ni0.02O4,22.100
Y1Ba2Cu3.9Zn0.1O8,22.100
La1.78Sr0.22Cu1O4,22.100
La1.79Sr0.21Cu0.99Ru0.01O4,22.100
Ge1Nb3,22.100
Mg0.7Al0.3B2,22.100
Nd1.85Ce0.15Cu0.995Mn0.005O4,22.100
La1.85Ca0.15Cu1O4,22.100
Ca8.18La1.82Pt3Fe10As18,22.100
Nd1Fe0.8Ru0.2As1F0.11O0.89,22.100
La0.3Na0.7Fe2As2,22.100
Sr0.2La1.8Cu0.99Cr0.01O4,22.000
Y1Ba2Cu2.7Co0.3O6.88,22.000
Nd1.55La0.3Th0.15Cu1O4,22.000
Nd0.95La0.9Ce0.15Cu1O4,22.000
Bi2Ca2.5Sm0.5Cu2O8.33,22.000
Bi2Sr2Ca0.5Y0.5Cu2O8,22.000
La1.82Sr0.18Cu1O3.967,22.000
Nd1.85Ce0.15Cu1O4,22.000
Y0.57Pr0.43Ba2Cu3O7,22.000
La1.945Rb0.055Cu1O4,22.000
Bi1.95Sr1.45Pr0.6Cu1O4,22.000
Y1Ba2Cu2.79Co0.21O7,22.000
Pb0.5Cd0.5Sr2Y0.5Ca0.5Cu2O7,22.000
La2.85Ca0.3Ba2.85Cu6O14.252,22.000
Nd2Cu1F1O4,22.000
Ca1La1Ba1Cu2.76Fe0.24O7,22.000
Ba1.6Sr0.4Yb0.75Ca0.25Cu3O6,22.000
La1.82Ba0.18Cu1O4,22.000
La1.8Nd0.1Ba0.1Cu1O4,22.000
La1.02Pr0.85Sr0.13Cu1O4,22.000
Tl1Ba0.6Sr0.4La1Cu1O5.16,22.000
Hg1Ba2Cu1O4.39,22.000
La1.8Sr0.2Cu1O4,22.000
La1.78Sr0.22Cu1O4,22.000
Y1Ba1.5La0.5Cu3O7.06,22.000
Eu1.5Ce0.5Sr2Cu1Ti1O10,22.000
La1.85Sr0.15Cu0.985Zn0.015O4,22.000
La1.8Sr0.2Cu0.98Zn0.02O4,22.000
La1.9Ca0.1Cu1O4,22.000
Y2Ba4Cu7O14.33,22.000
Pr1.85Ce0.15Cu1O4,22.000
Y1Ba2Cu2.64Co0.36O7.03,22.000
Pr1.85Ce0.15Cu0.99V0.01O3.98,22.000
La1.87Ce0.13Cu1O4,22.000
Ru0.9Ir0.1Sr2Gd1Cu2O8,22.000
Y1Pd3B3C0.3,22.000
Mg1B1.6C0.4,22.000
Mg1B1.8C0.2,22.000
Na0.18Hf1N1Cl1,22.000
Gd1Fe1As1F0.17O0.83,22.000
La1Fe1As1F0.075O0.925,22.000
Ba1Fe1.8Co0.2As2,22.000
Pr0.88La1Ce0.12Cu1O3.947,22.000
Ba1Fe1.84Co0.16As2,22.000
Ba1Fe1.75Co0.25As2,22.000
Ba1Fe2As2,22.000
Ba0.511K0.489Fe1.772Co0.228As2,22.000
Fe1.9Co0.1As2Sr4Mg1Ti1O6,22.000
Eu1Fe2As1.68P0.32,22.000
Fe2As2Sr4Sc1.5Ti1.5O8,22.000
Ca0.5Na0.5Fe2As2,22.000
Ca0.67Sr0.33Fe2As2,22.000
K0.8Fe1.996Co0.004Se2,22.000
Ba0.8K0.2Fe2As2,22.000
Na1Fe0.97Co0.03As1,22.000
Pr0.65Sr0.35Fe1As0.8Sb0.2O1,22.000
Pr0.6Sr0.4Fe1As0.9Sb0.1O1,22.000
Fe1Sr2Eu1Cu2O7.51,22.000
Ca1Fe0.9Co0.1As1F1,22.000
Ca0.78La0.22Fe1As2,22.000
Rb0.75Fe1.6Se1S1,22.000
Ca0.76Ce0.24Fe1As2,22.000
Ba1Fe1.86Co0.14As2,22.000
La1.85Sr0.15Cu98Ni0.02O4,21.960
Y1Ba2Cu3O6.29,21.900
Ca0.4Nd0.6Ba1La1Cu3O7.19,21.900
Sm1.85Ce0.15Cu1O4,21.900
Y0.5Pr0.5Ba2Cu3O6.98,21.900
Sr1Fe1.75Rh0.25As2,21.900
Pr0.65Sr0.35Fe1As0.85Sb0.15O1,21.900
Eu1Fe1.72Ir0.28As2,21.900
Ca8.2La1.8Pt3Fe10As18,21.900
Pr0.65Sr0.35Fe1As0.9Sb0.1O1,21.870
Bi2Sr1.6Pr0.4Cu1O6.313,21.800
La1.884Ba0.116Cu1O4,21.800
Nd1.55Sm0.3Ce0.15Cu1O3.972,21.800
Sm1.85Ce0.15Cu1O3.97,21.800
Ge1Nb3,21.800
K2Rb1C60,21.800
La1.45Nd0.4Sr0.15Cu1O4,21.800
Ba1Fe1.84Co0.16As2,21.800
La1.84Sr0.16Cu0.985Zn0.015O4,21.800
La1Fe1As1O0.6,21.800
Ce1Fe1As0.85P0.15F0.05O0.95,21.800
Ca0.78La0.22Fe1As2,21.800
Nd1.84Ce0.16Cu1O4,21.750
La1.4Nd0.4Sr0.2Cu1O4,21.700
La1.875Ca0.125Cu1O4,21.700
Sr0.67K0.33Fe2As2,21.700
Ba1Fe1.844Co0.156As2,21.700
Sm1Fe0.9Ru0.1As1F0.15O0.85,21.700
Sm1Fe1As0.5P0.5O0.85,21.700
Ce1Fe1As0.85P0.15F0.05O0.95,21.700
Ba1Fe2As1.4P0.6,21.700
Nd1.85Ce0.15Cu1O4,21.600
La1.782Ba0.218Cu1O4,21.600
Nd0.85Pr0.15Ba2Cu3O6.75,21.600
Nd1.65Sm0.2Ce0.15Cu1O3.971,21.600
Nd1.85Ce0.15Cu1O3.971,21.600
Eu1Fe1.72Ir0.28As2,21.600
La2Cu1O4,21.500
Nd1.55La0.3Ce0.15Cu1O4,21.500
Ba0.6K0.4Bi0.9Pb0.1O3,21.500
Nd1.85Ce0.15Cu1O4,21.500
Ba0.62K0.38Bi1O3,21.500
Y0.65Pr0.35Ba2Cu3O6.6,21.500
Pr1.91Ce0.09Cu1O4,21.500
Mg1B1.8C0.2,21.500
Th1Pd3B3C1,21.500
La1.85Sr0.15Cu0.98Ni0.02O4,21.500
Ba1Fe1.84Co0.16As2,21.500
Ba1Fe1.89Co0.11As2,21.500
Eu1Fe1.5Ru0.5As2,21.500
Ba2Ti2Fe2As4O1,21.500
Eu1Fe1.72Ir0.28As2,21.500
Eu1Fe1.2As2P0.8,21.500
Ca0.74La26Fe0.954Co0.046As2,21.500
Sm1.75Gd0.1Ce0.15Cu1O3.97,21.400
Ba1Fe1.85Co0.15As2,21.400
K0.7Fe1.55Se1.01S0.99,21.400
La1Fe1As0.4P0.6F0.1O0.9,21.400
Nd1.86Ce0.14Cu1O3.96,21.300
La1.78Sr0.22Cu0.99Ni0.01O4,21.300
Ca0.4Ba1.25La1.35Cu3O7.04,21.300
La1.78Sr0.22Cu1O4,21.300
La1.77Sr0.23Cu1O4,21.300
Ba1Fe0.875Ru1.125As2,21.300
Nd1Fe0.7Ru0.3As1F0.11O0.89,21.300
La1.925Sr0.075Cu1O4,21.200
Nd1.85Ce0.15Cu1O3.98,21.200
Nd1.65La0.2Ce0.15Cu1O4,21.200
Ba0.57K0.43Bi1O3,21.200
La1.78Sr0.22Cu0.99Ni0.01O4,21.200
Pr1.85Ce0.15Cu1O3.98,21.200
Pr1.85Ce0.15Cu0.97V0.03O3.98,21.200
Ge1Nb3,21.200
La1.865Ce0.135Cu1O4,21.200
Ca1Fe0.85Co0.15As1F1,21.200
Ca1Fe1.922Co0.078As2,21.200
La1Fe1As1F0.075O0.925,21.200
Ba1Fe1.48Ru0.52As2,21.200
La1Fe1As0.5P0.5F0.05O0.95,21.200
La1Fe1As0.4P0.6F0.1O0.9,21.140
Ba0.48K0.52Bi1O2.9,21.100
Y0.9Pr0.1Ba2Cu3O6.5,21.100
Nd1.85Ce0.15Cu1O4.026,21.100
Nd1.85Ce0.15Cu1O4.028,21.100
Nd1.85Ce0.15Cu0.98Mn0.02O4,21.100
La1Fe1As1F0.11O0.89,21.100
Na1Fe0.975Co0.025As1,21.100
Ba1Fe1.75Pt0.25As2,21.100
Ba1Fe1.824Co0.176As2,21.100
Ba2Ti2Fe2As4O1,21.100
La1Fe1As0.4P0.6F0.14O0.86,21.100
La1.87Sr0.13Cu0.993Zn0.007O4,21.020
Sr0.2La1.8Cu0.95Ti0.05O4,21.000
Sr0.2La1.8Cu0.95Ni0.05O4,21.000
Gd1Ba2Cu2.64Fe0.36O6.99,21.000
La1.8Ba0.2Cu1O4,21.000
Nd1.75Y0.1Ce0.15Cu1O4,21.000
Y1Sr2Cu2.65Ga0.35O6.7,21.000
Y1Sr2Cu2.6Fe0.4O7,21.000
Y1Sr2Cu2.675Ti0.325O6.6,21.000
Y1Sr2Cu2.65Ti0.35O6.8,21.000
Bi2Sr1.5La0.5Cu1O6.38,21.000
Nd1.85Ce0.15Cu1O4,21.000
Ca1.737Cu0.868Cl1.868Na0.132O2.263,21.000
La1.92K0.08Cu1O4,21.000
Sr1.4K0.6Cu1C1O5,21.000
Tl1Sr2Ca1Cu2O6.76,21.000
Y1Ba2Cu3.8Ni0.2O8,21.000
Sr2Cu1C0.94B0.06O5,21.000
Eu1.5Ce0.5Sr2Cu2Nb1O9.955,21.000
Pr1.79Ce0.15Sr0.06Cu1O3.94,21.000
Cu2Ti0.25Sr2Y1.3Ce0.7O8.71,21.000
La1.83Sr0.17Cu1O4,21.000
Nd1.85Y0.15Cu1O4,21.000
Sm0.8Pr0.2Ba2Cu3O6.65,21.000
Dy0.9Ca0.1Ba2Cu2.7Zn0.3O6.72,21.000
La1.74Nd0.125Sr0.135Cu1O4,21.000
La1.78Sr0.22Cu0.92Ni0.08O4,21.000
La1.775Sr0.225Cu0.995Ni0.005O4,21.000
La1.78Sr0.22Cu1O4,21.000
La1.77Sr0.23Cu1O4,21.000
La1.8Sr0.2Cu0.99Zn0.01O4,21.000
Er1Ba2Cu2.64Zn0.18Fe0.18O6.95,21.000
Y1Ba2Cu2.95Zn0.05O6.62,21.000
Sm1.65Gd0.2Ce0.15Cu1O3.97,21.000
Ru1Sr2Gd0.82Nd0.18Cu2O8,21.000
Pr1.86Ce0.14Cu1O4,21.000
Pr1.85Ce0.15Cu1O4,21.000
Mg1B1.8C0.2,21.000
Y1Pd4B1C0.2,21.000
Nb0.79Al0.16Ge0.05,21.000
Li1Hf0.5Zr0.5N1Cl1,21.000
Mg1B1.92F0.08,21.000
Nd1.85Ce0.15Cu0.96Mn0.04O4,21.000
Sr1Fe2As2,21.000
La1Fe1As1O1,21.000
Mo1Sr2Y1Cu2O8,21.000
Eu1Fe1.78Co0.22As2,21.000
Ba1Fe1.25Ru0.75As2,21.000
Ba1Fe1.824Co0.176As2,21.000
Eu1Fe1.715Co0.285As2,21.000
Eu1Fe2As1.7P0.3,21.000
Ca0.6Na0.4Fe2As2,21.000
La1.73Sr0.27Cu1O4,21.000
Pr2Ba4Cu7O14.3,21.000
Na1Fe0.975Co0.025As1,21.000
Na1Fe0.97Co0.03As1,21.000
Ca0.84Ce0.16Fe1As1.98Sb0.02,21.000
La1Fe1As1H0.44O0.56,21.000
Ca0.85Pr0.15Fe1As2,21.000
Eu1Fe1.78Ir0.22As2,21.000
La0.95Y0.05Fe0.995Mn0.005As1F0.11O0.89,21.000
Ba2Ti2Fe2As4O1,21.000
Ba1Fe1.889Co0.102Cu0.009As2,20.950
Pr1.85Ce0.15Cu1O4,20.900
Gd0.6Pr0.4Ba2Cu3O7,20.900
Nb0.75Al0.19Ge0.06,20.900
Mg1B1.6Be0.4,20.900
Nd1.85Ce0.15Cu1O4,20.900
Ca9.35Dy0.65Pt3Fe10As18,20.900
La1Fe1P0.6As0.4F0.1O0.9,20.860
Ba1Fe2As1.06P0.94,20.800
Al0.77Ge0.23Nb3,20.750
Pr2Ba4Cu7O14.44,20.750
Al0.75Ge0.25Nb0.003,20.700
Al0.8Ge0.2Nb3,20.700
Nb0.79Al0.164Ga0.057,20.700
Nb3Al0.71Ge0.29,20.700
Sr0.95Nd0.05Cu1O2,20.700
Ba1Fe1.82Co0.18As2,20.700
Ba0.52K0.48Bi1O2.93,20.600
Bi0.148Mo0.181Cu2.67Sr2Y1O7.21,20.600
La1.75Nd0.1Ca0.064Ba0.086Cu1O4.03,20.600
Ru1Sr1.98La0.02Gd1Cu2O8,20.600
La1.85Ca0.15Cu1O4,20.600
Ce1Fe1As0.8P0.2F0.05O0.95,20.600
Pr2Ba4Cu7O14.36,20.600
Y1Ba2Cu2.9Fe0.1O6.64,20.500
Y1Ba2Cu2.9Ni0.1O6.61,20.500
La1.85Sr0.15Cu0.99Ru0.01O4,20.500
Ga1Nb3,20.500
La1Fe1As1F0.05O0.95,20.500
Ba1Fe1.892Co0.108As2,20.500
Sr0.6La0.4Fe2As2,20.500
Ca6.85Pr3.15Pt3Fe10As18,20.500
Ba0.765K0.235Fe2As2,20.500
Ge1Nb3,20.460
La1.85Sr0.15Cu0.992Fe0.008O4,20.400
Ba0.59K0.41Bi1O2.96,20.400
Sr2Y1Ru0.9Cu0.1O6,20.400
Y0.6Pr0.4Ba2Cu3O6.95,20.400
Nb3Al0.76Ge0.24,20.400
Nb3Al0.66Ge0.34,20.400
Ca1Fe1.92Co0.08As2,20.400
Ca1Fe0.85Co0.15As1F1,20.400
Na1Fe0.97Co0.03As1,20.400
Ca1K1Fe3.872Ni0.128As4,20.400
Nd1.85Ce0.15Cu1O4,20.350
Al0.75Ge0.25Nb3.8,20.340
La1.92Sr0.08Cu1O3.994,20.300
Y0.35Pr0.65Ba1Sr1Cu3O6.9,20.300
Pr1.83Ce0.17Cu1O4,20.300
Ga0.4Nb0.6,20.300
Ga1Nb3,20.300
C60K3,20.300
La0.87Sr0.13Fe1As1O1,20.300
Sr0.33Hf1N1Cl1,20.300
La1Fe1As1H0.42O0.58,20.300
Ba1Fe1.9Ni0.1As2,20.300
Ba1Fe1.892Ni0.108As2,20.300
Al0.66Ge0.22Nb3.1,20.290
Nb0.78Al0.165Ge0.055,20.290
Nb0.75Al0.185Ge0.065,20.260
La1.85Sr0.15Cu0.988Zn0.012O4,20.200
Bi1.7Pb0.3Sr1.6La0.4Cu1O6.141,20.200
Y0.4Pr0.6Sr2Cu2.85Re0.15O6.8,20.200
Sm1.55Gd0.3Ce0.15Cu1O3.97,20.200
La1.8Pr0.2Cu1O4.063,20.200
Al0.75Ge0.25Nb3,20.200
Ga0.32Nb0.68,20.200
Ga0.245Nb0.755,20.200
Ba1Fe1.904Ni0.096As2,20.200
Ba0.33Hf1N1Cl1,20.200
La0.8Y0.2Fe0.985Mn0.015As1F0.11O0.89,20.200
La1.9Sr0.1Cu0.995Zn0.005O4,20.190
Nb0.75Al0.178Ge0.072,20.100
Ga1Nb3,20.100
La1.887Ca0.113Cu1O4,20.100
Sr1Fe1.3Ru0.7As2,20.100
Na1Fe0.972Co0.028As1,20.100
Ba1Fe1.9Ni0.1As2,20.100
Al0.8Ge0.2Nb3,20.050
Y1Ba2Cu2.82Al0.18O7,20.000
La1.9Ca0.1Cu1O3.967,20.000
Er1Ba2Cu3O6.34,20.000
Y1Ba2Cu3O6.5,20.000
Sm1La0.75Sr0.25Cu1O3.95,20.000
Nd1.5Ba1.5Cu3O7.14,20.000
Bi2Sr2Y1.64Ce0.36Cu2O10.22,20.000
Nd1.85Ce0.15Cu1O3.97,20.000
Nd1.85Ce0.15Cu1O4,20.000
Nd1.75La0.1Ce0.15Cu1O4,20.000
C60K3,20.000
Bi2Sr1.6La0.4Cu1O6.35,20.000
Nd1.5Ce0.5Sr2Cu2Nb1O10,20.000
Sm1.85Ce0.15Cu1O4,20.000
Y0.9Ca0.1Sr2Cu2.5Fe0.5O6.9,20.000
Ba0.55K0.45Bi1O3,20.000
La1.935K0.065Cu1O4,20.000
Sr1.5K0.5Cu1C1O5,20.000
Sr1.3K0.7Cu1C1O5,20.000
Hg1Ba2Cu1O4.025,20.000
Pr185Ce0.15Cu1O4,20.000
Sr0.7Ba1.3Y1Cu2.8Al0.2O7.11,20.000
Sr1Ba1Y1Cu2.8Al0.2O7.15,20.000
Ca1La1Ba1Cu2.91Zn0.09O7,20.000
Y0.3Pr0.7Ba2Cu4O8,20.000
La1.85Ca0.082Ba0.068Cu1O4,20.000
Ba0.5K0.5Bi1O3,20.000
Nd1.831Y0.018Ce0.15Cu1O4,20.000
La1.65Nd0.2Sr0.15Cu1O4,20.000
Ho1Ba2Cu2.94O6.48,20.000
La1.775Sr0.225Cu1O4,20.000
La1.76Sr0.24Cu1O4,20.000
Tl1Ba0.6Sr0.4La1Cu1O5,20.000
Nd1.85Ce0.15Cu0.999Ni0.001O4,20.000
Y1Ba2Cu2.94Zn0.06O6.63,20.000
Y1Ba2Cu2.94Zn0.06O6.68,20.000
Y1Ba2Cu2.91Zn0.09O6.7,20.000
Y1Ba2Cu2.79Zn0.21O6.95,20.000
Lu0.5Pr0.5Ba1.7Sr0.3Cu3O6.92,20.000
La1.3Ba1.5Ca0.2Cu3O6.7,20.000
La1.85Sr0.15Cu1O3.993,20.000
La1.78Sr0.22Cu0.998Zn0.003O4,20.000
La1.79Sr0.21Cu0.995Zn0.005O4,20.000
La1.78Sr0.22Cu0.995Zn0.005O4,20.000
La1.805Sr0.195Cu0.99Zn0.01O4,20.000
La1.79Sr0.21Cu0.99Zn0.01O4,20.000
Y1Ba2Cu2.931Zn0.069O6.6,20.000
Y1Ba2Cu2.919Zn0.081O6.75,20.000
Bi2Sr1.34La0.66Cu1O6,20.000
La1.85Sr0.15Cu0.98Zn0.02O4,20.000
La1.91Ca0.09Cu1O4,20.000
Pr1.85Ce0.15Cu1O3.97,20.000
La1.85Sr0.15Cu0.985Zn0.015O4,20.000
La1.9Sr0.1Cu0.95Li0.05O4,20.000
Y1Ba2Cu3O6.45,20.000
Ru0.7Sn0.3Sr2Eu1Cu2O8,20.000
La1.87Ce0.13Cu1O4,20.000
Y1Ba2Cu3O6.35,20.000
Pr1.85Ce0.15Cu1O4,20.000
Nb3Al0.95Ge0.05,20.000
Nb3Al0.94Ge0.06,20.000
Nb3Al0.93Ge0.07,20.000
Nb0.75Al0.188Ge0.062,20.000
Nb0.75Al0.19Ge0.06,20.000
Nb0.75Al0.2Ge0.05,20.000
Nb0.75Al0.21Ge0.04,20.000
Ga0.25Nb0.75,20.000
Li1,20.000
Mg1B1.85C0.15,20.000
Li0.37Hf1N1Cl1,20.000
Sr0.6K0.4Fe2As2,20.000
La1.9Ca0.1Cu1O4,20.000
Li1.1Fe1As1,20.000
La0.87Sr0.13Fe1As1O1,20.000
Ba1Fe1.8Co0.2As2,20.000
Sr2V1Fe1As1O2.5,20.000
La1Fe1As1F0.15O0.85,20.000
Ca0.5Na0.5Fe2As2,20.000
Sm1Fe1As0.5P0.5O1,20.000
Ca1.867Na0.133Cu1Cl2O2,20.000
Ba1Fe1.83Zn0.04Co0.13As2,20.000
Ba1Fe1.87Zn0.02Co0.11As2,20.000
K0.8Fe1.996Cr0.004Se2,20.000
Ba0.3K0.7Fe2As2,20.000
Ba1Fe1.906Co0.094As2,20.000
Ba1Fe1.9Ni0.1As2,20.000
Ca0.9Pr0.1Fe1.3As1.8O0.2,20.000
Ca0.9Pr0.1Fe1As2,20.000
K0.5Na0.24Fe1.52Se2,20.000
Ba0.9Yb0.1Fe2As2,20.000
Tl2Ba2Cu1O6,20.000
La1Fe1As1F0.05O0.95,20.000
Ba1Fe1.3Ru0.7As2,20.000
Ca1Fe2As1.86P0.14,20.000
La1Fe1As0.9P0.1H0.3O0.3,20.000
La1.8Eu0.2Cu1O3.5,20.000
Sr2V1Fe1As1O2.75,20.000
Na0.75Co0.995Ga0.005H2.6O3.3,2.990
La1Ni1C2,2.990
Bi3.975Cu0.025S3O4,2.990
Bi3.9Cu0.1S3O4,2.990
Pd0.04Ir0.96Te2,2.990
La1F0.5Bi1S1.4Se0.6O0.5,2.990
Ni0.254Zr0.746,2.980
In0.69Tl0.31,2.980
Y0.3Lu0.7Ir4B4,2.980
Sr1Ga0.6Si1.4,2.980
La1Ni1As1O1,2.980
Sn0.704Pb0.176In0.12Te1,2.980
Ce0.6Nd0.4F0.5Bi1S2O0.5,2.980
Th1Pt1Si1,2.980
Te2Ti1,2.980
La1Fe1P1F0.14O0.86,2.980
Ba0.47K0.53Bi0.965Pr0.035O3,2.970
Mo0.9Re0.1,2.970
Pb1Te1Sn1,2.970
In0.1Tl0.9,2.970
Au1V3,2.970
Os0.025Zr0.975,2.970
Sn0.8In0.2Te1,2.970
Pd1Zr3,2.960
S3Sn1Ta1,2.960
Lu1Ni1B1C1,2.960
Ce1Bi1S2F0.6O0.4,2.960
Sr1Pd1.98Pt0.02Ge2,2.960
Y2Ir3Si5,2.960
Sr0.4La0.6Bi1S2F1,2.960
Te3Zr1,2.950
Cu0.1Ti2Se2,2.950
Mo0.91Ti0.09,2.950
Pb2Pd1,2.950
Mo0.913Ti0.087,2.950
Mo0.913Ti0.037,2.950
Si0.05V0.95,2.950
H0.87Pd1,2.950
Pd0.95Ni0.05H0.9,2.950
Cu0.1Bi2Se3,2.950
Th1Co1Si1,2.950
Se2Ta1.08,2.950
Ni0.329Zr0.671,2.940
Lu1Ni0.9V0.1B1C1,2.940
Zr0.87Ge0.13,2.940
Bi0.5Sb0.5,2.940
Lu0.55Tm0.45Ru1B2,2.940
Rh3Bi14,2.940
Eu1Sr2Bi2S2Se2F4,2.940
Cr0.06V0.94,2.930
Th1Ir0.2Os1.8,2.930
Ba1Pb0.5Hg0.25Bi0.25O3,2.930
La0.9Sm0.1Bi1S2F0.5O0.5,2.930
Ni0.388Zr0.612,2.920
Sc0.25Y0.75Ir3.6Rh0.4B4,2.920
Hf0.654Mo0.346,2.920
Nb0.25V0.75N0.94,2.920
Ru0.43V0.57,2.920
Mo0.9Re0.1,2.920
Sr1Pd1.8Rh0.2Ge2,2.920
Ce1Bi1S2F0.7O0.3,2.920
Bi2S2F0.1O0.9,2.920
Ir0.95Pt0.05Te2,2.920
La1Ni1C2,2.920
Ba1Pb0.9Bi0.1O3,2.910
Pd0.176Zr0.824,2.910
Nd1Pt2.1B2.4C1.2,2.910
Ba1Pd0.2Si1.8,2.910
Lu1Ni1B0.9C1.1,2.900
Ca1Cu0.25Si1.55,2.900
La1Ni1C2,2.900
Ba8Si42Cu4,2.900
C1Os2W3,2.900
Ga7Pt3,2.900
Rh0.91Ti0.4V0.05,2.900
V2.7Ru0.3Si1,2.900
Nb2.01V0.99Au1,2.900
Ga0.7Pt0.3,2.900
N0.82V1,2.900
Si1V2.7Ru0.3,2.900
Ta0.05Ti0.95,2.900
Lu1Ni1.81Co0.38B2C1,2.900
C0.78W0.22Si1,2.900
Sn1Ta1S3,2.900
Lu1Ni1B1C1,2.900
Ga1Nb4Se8,2.900
Au1V3,2.900
Os2Zr1,2.900
Y1.968Lu0.032Fe3Si5,2.900
La0.999Tb0.002Al2,2.900
La1Al1.995Si0.005,2.900
C1,2.900
Pd2Hf0.5Y0.5Al1,2.900
Ba1Al1Sn1,2.900
Ni2Nb1Sn1,2.900
Pb1.12Nb2Se5.12,2.900
Lu1Rh2Sn1,2.900
Y1Fe2Si2,2.900
Bi2Te3,2.900
Zr1Ru0.9Rh0.1P1,2.900
K0.9Na0.1Fe2As2,2.900
Mg1Pt0.5Au0.5Si1,2.900
Cs1Pb0.3Bi3.7Te6,2.900
Ce1Bi3.7Pb0.3Te6,2.900
Ce1Bi3.3Pb0.7Te6,2.900
Ce1Bi3.2Pb0.8Te6,2.900
Ba1Pd0.3Si1.7,2.900
Nd1Fe1P1F0.1O0.9,2.900
Nb1Bi2Se3,2.900
C1.36Pb5Bi12Se23,2.900
Sr0.5Ce0.5F1Bi1S1Se1,2.900
Rb0.33W1O3,2.890
Co1Sc0.125Zr1.875,2.890
Ir3Lu1,2.890
Hf0.8Mo0.2,2.890
Sr1Pd1.9Pt0.1Ge2,2.890
La0.995Y0.005Fe0.995Mn0.005As1F0.11O0.89,2.890
Ba2Ti2Fe1.88Cr0.12As4O1,2.890
Pd0.195Zr0.805,2.880
Ba1Ta2S5,2.880
Mn1U6,2.880
Pt1V3,2.870
Sn0.02V0.98,2.870
Th1Ir1.6Ru0.4,2.870
Th1Ir0.6Ru1.4,2.870
Th1Ir0.4Ru1.6,2.870
Ni2Zr1Ga1,2.870
Sr0.1Bi2Se3,2.870
Sr0.8Ba0.2Ni2P2,2.870
La3Co4Sn13,2.870
Y2Dy3Os4Ge10,2.860
Rh0.342Zr0.658,2.860
Nb0.5Os0.5,2.860
Nb1Os1,2.860
U6Mn0.5Fe0.5,2.860
Cu1Rh1.9Sn0.1Se4,2.860
Hf1Pd2In1,2.860
Li2Pt3B0.99Al0.01,2.860
La1Ni1C2,2.860
Sn1.15Ta1S3.15,2.850
Nb1S3Sn1,2.850
Sb0.7Sn0.3,2.850
Y2Br0.25Cl1.75C2,2.850
Ta0.92W0.08,2.850
Bi14Rh3,2.850
In2Mo6Se6,2.850
Y3Ru4Ge13,2.850
La0.85Th0.15Bi1S2O1,2.850
La3Co4Sn13,2.850
Ce1Bi1S2F0.4O0.6,2.850
Pb0.18Sn0.74In0.08Te1,2.850
Cu0.05Ir1Te2,2.850
Pd0.204Zr0.796,2.840
Bi1Zr3,2.840
Si0.4W0.6,2.840
Si2W3,2.840
Lu4.5Tm0.5Ir4Si10,2.840
Co0.032Ti0.968,2.840
Ti0.99Nb2.01Sb1,2.840
Ba1Ni2Ge0.4P1.6,2.840
Cu0.05Ir1Te2,2.840
Pb0.184Sn0.736In0.08Te1,2.840
Ir0.95Pt0.05Te2,2.840
Sr0.1Bi2Se3,2.840
Sr0.6Ba0.4Ni2P2,2.840
Th1Si1Co1,2.840
Al0.06V0.94,2.830
Tl1Ni2Se1.8S0.2,2.830
Mg0.8Zn0.2C1Ni3,2.820
Pd2Tm1Sn1,2.820
Y0.8Ca0.2C2,2.820
La1Rh3B2,2.820
Cu1Co1.98Rh0.02S4,2.820
Y2Pd1Ge3,2.820
Dy1Rh2.8Ir1.2B4,2.820
La1Pt0.8Ni0.2Si1,2.820
Sr1Pd1.99Pt0.01Ge2,2.820
Ir0.43Rh0.52Te2,2.820
Sn0.736Pb0.184In0.08Te1,2.820
La0.9Ce0.1Ir3,2.820
H0.12Ta0.88,2.810
Sn0.807Pb0.142In0.05Te1,2.810
Sr0.5Ce0.5F1Bi1S2,2.810
La1.85Sr0.15Cu0.973Zn0.027O4,2.800
La1.94Sr0.06Cu1O4,2.800
Sr0.2Ta1S2,2.800
Na0.38Co1H2.6O3.3,2.800
Pd2Y0.85Dy0.15Sn1,2.800
Pd2Yb1Pb1,2.800
C1Mo2,2.800
Ba1Al0.95Si1.05,2.800
Cd1C1Ni3,2.800
Cs0.5Nb1S2,2.800
Be0.813Zr0.187,2.800
In1.1Te1,2.800
Al1Sb1,2.800
Bi2Te3,2.800
C0.42Mo1,2.800
Fe0.5Mn0.5U6,2.800
In0.11O3W1,2.800
Mo0.93Pt0.17,2.800
Nb0.9Rh0.1,2.800
Nb0.9Ru0.1,2.800
Pb0.8Pt0.2,2.800
Sn0.25Ta0.25V0.5,2.800
Ta0.25V0.75,2.800
B1Zr1,2.800
B1Re2,2.800
Pb4Pt1,2.800
V2Ta1Sn1,2.800
Nb3Rh0.9Pt0.1,2.800
Sn1Ta1V2,2.800
La1Ru4Sb12,2.800
Cu0.7Zn0.3Ir2S4,2.800
Zn1Mo6S8,2.800
Cu0.65Zn0.35Ir2S4,2.800
Ca1Tl1.8Pb1.2,2.800
Ba8Si25Ge21,2.800
Mo0.071Ti0.929,2.800
Pd0.985Ni0.015H0.79,2.800
Mg1C1Ni2.7Ru0.3,2.800
Ta1V2,2.800
La3Co4Ge13,2.800
Ru7B3,2.800
Nb6Sn5,2.800
La1.79Sr0.21Cu0.94Fe0.06O4,2.800
Sr1Ir2As2,2.800
Ni2As2Sr4Sc2O6,2.800
Sr1Si1.7Ni0.3,2.800
Lu1Pd2Sn1,2.800
Lu1.96Sc0.04Ir3Si5,2.800
Sr0.5La0.5F1Bi1S2,2.800
La1Pd0.6Ge0.14,2.800
Sr0.5Ce0.5Bi1S2F1,2.800
Sr0.5La0.5Bi1S2F1,2.800
Ce1Bi3.1Pb0.9Te6,2.800
Pd0.4Ho1Te3,2.800
Cu0.05Ir1Te1.8Se0.2,2.800
La1Ni1C2,2.800
Y3Ru4Ge13,2.800
Ba1Pt1As1,2.800
K0.6Mo1S2,2.800
Zr4Rh2O0.7,2.800
Zr5Ge2.5Pt0.5,2.800
Pb1.6Bi0.4Pd1,2.800
K1Mo15Se19,2.800
Nb3Rh1,2.790
Cu1Co1.98Ir0.02S4,2.790
Hf0.834W0.166,2.790
Lu5Rh4Ge10,2.790
Al1Gd0.006La3,2.790
Tm0.8Lu0.2Fe3Si5,2.790
La0.95Y0.05Ni1C2,2.790
K1Fe2As2,2.790
Ba1Ag0.4Si1.6,2.790
La0.2Ce0.8Ir3,2.790
C1Mo2,2.780
Zr0.409Ti0.334Ni0.256,2.780
Ag1Bi1,2.780
Sr0.67Pt3B2,2.780
Ta0.91W0.09,2.780
Au0.12Zr0.88,2.780
Au0.1Zr0.9,2.780
La0.999Gd0.001Al2,2.780
Lu2Fe3Si5,2.780
Bi2Pd1,2.780
Pd2Y0.6Er0.4Sn1,2.770
Ni1Zr2,2.770
Hf0.78W0.22,2.770
Re0.05Ta0.95,2.770
Ce1Bi1S2F0.4O0.6,2.770
Sn0.76Pb0.19In0.05Te1,2.770
P1W3,2.760
In0.62Tl0.38,2.760
La0.95Nd0.05Pt1Si1,2.760
Y5Ir4Ge10,2.760
Sr1Pd2Si0.02Ge1.98,2.760
Nb2Pd1S4Se1,2.760
Pb0.19Sn0.76In0.05Te1,2.760
Sr0.5Ba0.5Ni2P2,2.760
La3Pd4Ge4,2.750
Bi4Rh1,2.750
Sn1.17Nb1S3.17,2.750
Ta1S1.8Se0.2,2.750
Mg0.47Tl0.53,2.750
Sr1Ta2S5,2.750
Sn1Nb1S3,2.750
Y1.9Dy0.1Fe3Si5,2.750
Th1Ir0.1Si1.9,2.750
La1Ni1As1O1,2.750
Eu1,2.750
Fe1Se0.5S0.5,2.750
La1Bi1S2F0.5O0.5,2.750
Ru2Y1,2.750
Cr0.74Re0.26,2.750
Ta1S2,2.750
C1W2,2.740
Al0.964Ge0.036,2.740
Lu4.5Er0.5Ir4Si10,2.740
La0.39Ce0.61Ir3,2.740
B2Nb1,2.730
Nb0.9Mo2.1Al1,2.730
La0.97Gd0.03Ru2,2.730
Ta0.5V0.5,2.730
Pb1.14Nb1S3.14,2.720
Mg1Mo6S7,2.720
Sm1Rh4B4,2.720
Y1Ir2Si2,2.720
Sr1Pd2Si0.04Ge1.96,2.720
Pr0.55Eu0.45Pt4Ge12,2.720
Eu3Bi2S2.5Se1.5F4,2.720
Li0.62Rb1Ca2Nb3O10,2.710
Na0.26Co1H2.6O3.3,2.710
La2.945Gd0.055In1,2.710
Hf0.906Mo0.094,2.710
Cu0.1Ta1S2,2.710
Cu0.07Ir1Te2,2.710
Cu0.125Ir1Te1.7Se0.3,2.710
Li0.69Fe1.31S1H1O1,2.710
Sr2Ru1O4,2.700
Li0.62Rb1Ca2Nb3O10,2.700
Bi1.08Ta2S5.08,2.700
K1Tl1.5C4,2.700
In0.95Te1,2.700
Bi1.08S5.08Ta2,2.700
Au1Ge1,2.700
Bi0.8Rh0.2,2.700
Cu1Rh1.95Se4Sn0.05,2.700
Mn0.67Ni0.33U6,2.700
Nb0.375Rh0.625,2.700
Rh1Zr1,2.700
Ti0.96V0.04,2.700
Nb0.75Rh1.25,2.700
Nb3Rh0.9Au0.1,2.700
La1Ni1C2,2.700
Sm1Rh4B4,2.700
Ce1Te1.82,2.700
Y1,2.700
As1,2.700
Cu1Co1.8Cr0.2S4,2.700
Ti0.36V0.54Al0.1,2.700
Y1Ir1Si1,2.700
Y2Rh3Si5,2.700
Sr1Ti1O3,2.700
Co7Y9,2.700
Th0.3Zr0.7,2.700
Tc0.25Ti0.75,2.700
La0.8Y0.2,2.700
Re1Ge2,2.700
Pb0.06Tl0.94,2.700
Ga0.1Nb1Se2,2.700
Ni2As2Sr4Sc2O6,2.700
Sr1Pd2Ge2,2.700
Si3W5,2.700
Zr0.394Cu0.308Al0.242Ni0.056,2.700
La3Co4Sn13,2.700
In1N1,2.700
La1Bi1S2F0.5O0.5,2.700
Sr1Pd2Si0.1Ge1.9,2.700
La1Pd1Sb2,2.700
Sr0.5Ce0.5F1Bi1S2,2.700
Cs1Pb1Bi3Te6,2.700
Ce1Bi3Pb1Te6,2.700
Bi2.14F0.27S2O0.73,2.700
Pd0.03Ir0.97Te2,2.700
Th1Si1.075Co0.925,2.700
Cu1.5Pb5Bi6Se23,2.700
Nb1Os2,2.700
Sr0.5Ce0.5F1Bi1S1.5Se0.5,2.700
Re0.174Zr0.826,2.690
Hf1Os2,2.690
La2.58Pr0.42S4,2.690
Sr2Ru1O4,2.690
Ir0.94Pt0.06Te2,2.690
Cr0.74Re0.26,2.690
Cu0.1Ti1Se2,2.680
Nb1Sn2,2.680
C1,2.680
Y2Pd0.9Pt0.1Ge3,2.680
Au1.3Pd0.7In1Y1,2.680
Zn0.025In2O3,2.680
Ce1Bi1S2F0.7O0.3,2.680
Ce1F0.7Bi1S2O0.7,2.680
Pr1Pt4Ge11Sb1,2.680
Pd0.03Ir1Te2,2.680
Eu0.5Ce0.5F1Bi1S1.8Se0.2,2.680
Co0.459Zr0.541,2.670
Ag1Tl1,2.670
Ag0.03Tl0.97,2.670
Lu1Ir3.6Rh0.4B4,2.670
Mo0.3Nb0.7,2.670
Cd1Mo5S6,2.670
Sc1Mo6S7,2.670
Am0.01Si2Th1,2.660