formula,Tc,type
Re0.84,8.0,original
Nb1.06Tc0.33,8.0,original
Nb0.34Ti1.59V0.1,8.0,original
Zr3.31,8.0,original
Tc24.69Zr3.7,8.0,original
Ti0.59V0.34Zr1.12,8.0,original
Ge0.41Nb3.63Sn0.24,8.0,original
Mo5.84Si0.92,8.0,original
Cu1.52Mo7.34S8.78,8.0,original
Au1.62Nb0.82,8.0,original
Nb2.37S2.07,8.0,original
V0.54,8.0,original
La1.11Ru9.64Si0.58,8.0,original
H54.74Th14.52,8.0,original
P1.78Ru2.65Zr3.7,8.0,original
Fe1.02Se0.49,8.0,original
As0.57Fe1.02H0.84La1.11P0.1,8.0,original
Ca2.98Rh7.17Sn11.37Sr0.49,8.0,original
B1.62Nb1.1Rh3.52,8.0,original
P2.24Sc1.19Se0.39Zr6.59,8.0,original
B1.62Nb0.47,8.0,original
Ga0.18V0.54,8.0,original
B3.4Er7.65Ir2.67Rh4.25,8.0,original
Ti3.54,8.0,original
La3.85Tl4.41,8.0,original
Ge9.94La0.54Pt9.58Th1.37,8.0,original
B5.18Y2.04,8.0,original
B1.62Dy4.4Lu1.84Ni4.79,8.0,original
As1.47Ba0.64Co0.27Fe2.08Zn0.13,8.0,original
P1.78Pd0.51Pt6.42Sr1.46,8.0,original
Ta1.81Ti2.63,8.0,original
B1.62Ho1.03Lu2.95Ru2.65,8.0,original
As0.65Co0.23Fe0.92Na3.91,8.0,original
Ti1.68V0.4,8.0,original
Tc6.15W2.59,8.0,original
Fe1.02La1.11P1.31,8.0,original
V0.58,8.0,original
B1.62Mo,8.0,original
B0.73Ta4.17Zr0.62,8.0,original
Bi0.21Cs10.49O0.2Pb2.32Sr1.46,8.0,original
Ce0.71Cu0.13Gd9.94O0.48Pr0.55,8.0,original
N5.82V0.73,8.0,original
F0.2Fe1.02La1.11P1.78,8.0,original
Cd2.08Pb0.92Sn0.34,8.0,original
Nb0.85,8.0,original
V2.32Zr11.4,8.0,original
Pd0.1Zr3.31,8.0,original
Ru2.65W5.25,8.0,original
Pd0.57Si0.25V2.06,8.0,original
Ce1.07Ga1.1V2.15,8.0,original
Ta4.17,8.0,original
Ti3.41,8.0,original
Hf9.88Nb1.1,8.0,original
Nb0.12Ti0.62Zr2.15,8.0,original
Ti1.26Zr1.65,8.0,original
B1.62Dy4.13Lu1.93Ni4.79,8.0,original
B1.62Co0.86Lu3.29Ni4.52,8.0,original
Ba8.19Ga18.41Ge25.02,8.0,original
Al0.14B1.62Mg1.86Zn0.38,8.0,original
Ti2.46V0.26,8.0,original
B5.18Y14.01,8.0,original
B0.73Mo2.35,8.0,original
Mo3.59Sb8.53,8.0,original
In1.68Nb2.37,8.0,original
Ir1.62Zr7.55,8.0,original
As1.47Ba0.64Fe2.12Ni0.17,8.0,original
As0.65Fe0.97Sm6.8,8.0,original
As0.65F0.46Fe1.02La1.1,8.0,original
P1.03Pt7.15Sr1.46,8.0,original
Ca2.6Rh7.17Sn11.37Sr1.02,8.0,original
Al2.03W15.87,8.0,original
Nd3.84Ni2.3,8.0,original
Fe1.02Se0.45,8.0,original
Ti1.66V0.41,8.0,original
As14.67Ca12.24Fe11.28Pt9.54,8.0,original
B0.64Li14.58Pd6.02,8.0,original
Ir0.21Rh1.24Se1.15,8.0,original
Ti0.72V0.58,8.0,original
As0.24Co0.32Fe0.89P0.85Pr0.75,8.0,original
Ti1.59V0.42,8.0,original
B2.06Mo1.1,8.0,original
In0.78Sn0.34,8.0,original
Pb1.73Sn0.27,8.0,original
Re1.25,8.0,original
C0.24Ni2.3Th1.01Y1.32,8.0,original
B1.62Ho10.64Ni4.79,8.0,original
Os3.03P1.78Zr3.7,8.0,original
Ga0.22Mn0.62Nb0.75,8.0,original
Mg3.17Ni7.16,8.0,original
Ir1.62Nb6.17Pt4.72,8.0,original
Cu0.13La2.35O0.48,8.0,original
Bi1.73K4.5O0.2,8.0,original
C0.24Mo3.59,8.0,original
Ti3.58,8.0,original
Nb0.15Ti3.11,8.0,original
Re8.86Zr3.7,8.0,original
Ga0.57V2.32,8.0,original
Nb1.73Sb1.15V1.13,8.0,original
Nb3.63Pt1.56Rh0.42,8.0,original
Ti3.53,8.0,original
Ti1.92V0.34,8.0,original
Ti3.57,8.0,original
Ge0.61Nb3.63,8.0,original
B1.62Gd1.88Ni4.79Y1.52,8.0,original
C0.11Mg3.17Ni7.28,8.0,original
Te2.37,8.0,original
,8.0,original
Mo0.72Re0.28,8.0,original
Mo0.66Pt0.1Re0.32,8.0,original
B1.62Er7.65Ni4.69,8.0,original
Er7.65Pb6.37,8.0,original
B0.73Li14.58Ni0.56Pd5.41,8.0,original
As1.47Ba0.64Fe2.23,8.0,original
As1.47Fe2.05Ni0.31Sr1.46,8.0,original
As1.47Ba0.64Co0.21Fe2.2,8.0,original
As1.47Ba0.64Fe2.24,8.0,original
Al0.98Na3.91Si0.25,8.0,original
As1.47Fe2.3La1.11,8.0,original
H3.53Pd1.94,8.0,original
B1.62Ni4.59Tm7.72,8.0,original
As1.47Fe2.3K4.77,8.0,original
Fe1.02S0.11Se0.39,8.0,original
H0.29Nb0.97,8.0,original
As14.67Ca12.24Fe12.01Pt8.15,8.0,original
B3.4Er7.65Ir3.36Rh3.52,8.0,original
H3.52Pd1.94,8.0,original
P2.24Sc1.44Se0.39Zr6.4,8.0,original
Bi0.46Sn0.42,8.0,original
B3.4Ru11.04Sc4.95,8.0,original
B1.62Dy0.97Lu2.95Ru2.65,8.0,original
P2.24Sc0.69Se0.39Zr6.97,8.0,original
H1.76Hf9.88V1.53,8.0,original
Hf4.89N5.7Nb0.47,8.0,original
Nb0.97,8.0,original
B3.4Er3.47Ho5.89Rh7.17,8.0,original
P2.24Sc1.94Se0.39Zr6.01,8.0,original
Mo0.41P0.73Ru0.15,8.0,original
B1.62Er7.65Ni4.7,8.0,original
B1.62Lu2.61Ru2.65Tm1.49,8.0,original
B1.62Hf9.58,8.0,original
Ce0.71Cu0.13Eu12.69O0.47,8.0,original
Cu0.12La2.55O0.5,8.0,original
Re19.25W37.12,8.0,original
Hf0.16Re1.4,8.0,original
In1.14Sn0.16,8.0,original
Rh0.42W3.65,8.0,original
Ga0.53Ge0.32Nb3.63,8.0,original
Al0.34Ge0.41Nb3.63,8.0,original
Ti2.37V0.16,8.0,original
B1.62Gd0.98Lu2.88Ni4.79,8.0,original
Bi1.14,8.0,original
In1.68N5.82Ti8.52,8.0,original
C0.17Mg3.83Ni7.28,8.0,original
As1.47Ba0.47Fe2.3K0.74,8.0,original
Bi4.85La1.11,8.0,original
As0.65Ta5.24,8.0,original
Co0.32Mg3.17Ni7.03,8.0,original
Pb3.1,8.0,original
H1.13Nb0.68,8.0,original
Fe1.02S0.11Te1.75,8.0,original
As1.47Ba0.43Fe2.3K0.96,8.0,original
Eu0.93Ge9.94Pr0.63Pt9.58,8.0,original
Ag0.57Pb3.05,8.0,original
Nb1.04W0.2,8.0,original
Bi1.47,8.0,original
K0.14Mo1.1,8.0,original
Lu1.25P2.24Se0.39Zr6.01,8.0,original
Sb2.38Te7.36,8.0,original
Ce0.89Cu0.13La2.29O0.48,8.0,original
Pb3.13,8.0,original
Pb3.06,8.0,original
Nb0.1Ti2.5Zr0.54,8.0,original
Ba0.21Bi0.63K2.05O0.2Pb1.51,8.0,original
Ba0.43Bi0.29K0.96O0.2Pb2.16,8.0,original
Ca2.14Cl16.44Cu0.13Na0.42,8.0,original
Bi1.47K3.14O0.2,8.0,original
Co4.41Ga5.72Np7.22U3.18,8.0,original
Ba6.04Si15.36Sr3.22,8.0,original
La1.11P22.25Ru11.04,8.0,original
C0.24La0.68Ni2.3Th1.01,8.0,original
Be0.83,8.0,original
Li7.24Pb3.13,8.0,original
Pb3.13Pt2.29,8.0,original
Sb0.22Ti3.11,8.0,original
Mo3.59O0.75,8.0,original
Nb0.16Re1.05,8.0,original
Ge0.4V2.32,8.0,original
Mo3.59Os3.03,8.0,original
Na1.06Pb2.22,8.0,original
Ti3.55,8.0,original
Ti2.71Zr0.51,8.0,original
B1.62Co0.11Er7.65Ni2.23,8.0,original
Cu0.13Mg3.17Ni7.28,8.0,original
Co0.77Mg3.17Ni6.78,8.0,original
Ga0.76Sn0.16V2.32,8.0,original
C0.41Sc2.95Th5.03,8.0,original
Re1.14V0.1,8.0,original
As1.14Ba0.64Fe2.3P0.66,8.0,original
As1.47Co0.5Fe2.12Sr1.46,8.0,original
Bi1.47La1.11,8.0,original
Fe1.02Se0.44,8.0,original
B1.62Ir3.36Nb1.1,8.0,original
Ce5.21Ru5.45,8.0,original
Pb3.11,8.0,original
Ce5.51Ru5.45,8.0,original
Mo0.61Ru0.94,8.0,original
Tc4.91W3.12,8.0,original
As0.65Fe0.96La1.11,8.0,original
Nb0.72Ta1.49,8.0,original
As2.3Cr1.47Rb5.68,8.0,original
As1.47Ba0.64Fe2.13Pd0.17,8.0,original
Ga4.56Mo1.09,8.0,original
Pb3.08,8.0,original
Hg0.12Pb3.03,8.0,original
Mo7.34Pb3.13S0.95Se4.22,8.0,original
Cd0.25Pb3.05,8.0,original
Pb2.81Zn0.17,8.0,original
N4.93Nb1.04,8.0,original
In1.68La3.92,8.0,original
Bi1.47F0.93La1.11S2.07,8.0,original
Pb3.04,8.0,original
B0.73Re19.25W37.12,8.0,original
B4.29Mo1.97Ti1.16,8.0,original
Sn0.47Tl1.46,8.0,original
Ti3.61,8.0,original
Ti1.74V0.35,8.0,original
B1.62Er6.1Ni4.79Tb2.74,8.0,original
Al0.18Nb0.8,8.0,original
Ga0.19Mn0.62Nb0.78,8.0,original
Mo7.34Pb0.86Se4.83Yb6.91,8.0,original
Co1.68Mg3.17Ni6.29,8.0,original
Ba8.19Ge2.41Si14.35,8.0,original
C0.41Sc3.95Th4.29,8.0,original
La1.11Mo7.34S8.78,8.0,original
Br33.28Mo7.34Se2.99,8.0,original
Ti2.02V0.34,8.0,original
Ta3.88Zr0.83,8.0,original
As0.65Fe0.96Nd4.84,8.0,original
As1.47Ba0.64Fe1.33Ru1.97,8.0,original
Lu0.74P2.24Se0.39Zr6.59,8.0,original
Pb3,8.0,original
Ti2.52V0.25,8.0,original
Pb2.94,8.0,original
Pb0.79Sn0.53,8.0,original
Mo7.34S8.78Sn0.78,8.0,original
Nb1.11Se1.15,8.0,original
As0.65Fe0.96Pr0.59,8.0,original
B10.52Li12.38,8.0,original
Hf9.88V1.41,8.0,original
Pb2.85,8.0,original
Br22.17C0.24La2.55,8.0,original
Sc2.44V0.34,8.0,original
Pb2.87,8.0,original
Ce0.71Cu0.13O0.49Pr1.41,8.0,original
Cu0.13La2.36O0.48,7.0,original
Bi3.16Ca2.91Cu0.76Eu3.35O1.68,7.0,original
Cu0.11La2.26O0.48,7.0,original
Ba6.04C10.41,7.0,original
Cu0.13O0.75Sr3.22,7.0,original
Ca3.54Cu2.02Ge0.15O2.44Sr3.22,7.0,original
Bi3.16Cu0.13O1.08Sr3.22,7.0,original
Bi1.47K3.47O0.2,7.0,original
Cu0.76Eu6.81O1.59Ru2.65Sr3.11,7.0,original
Ba8.19Co18.05Ge35.06,7.0,original
La1.11P22.25Ru11.04,7.0,original
B4.29Mo1.97Ta1.49,7.0,original
B4.29Nb2.11Th0.64,7.0,original
Bi0.54Pb1.67,7.0,original
Bi0.8Sn0.25,7.0,original
C0.41Er6.1Th4.29,7.0,original
Co4.41Zr7.55,7.0,original
Mo0.6Ru0.97,7.0,original
Nb1.1Se1.15,7.0,original
Nb1.01Tc0.83,7.0,original
Re1.43,7.0,original
Rh0.48Ta3.42,7.0,original
Rh0.6Zr2.16,7.0,original
Sn0.78V2.32,7.0,original
Ti2.46V0.26,7.0,original
Al0.19Nb0.78,7.0,original
Hf2.4Nb0.78,7.0,original
Ca1.05Pb3.13,7.0,original
Ti1.92V0.34,7.0,original
B1.62Ni4.54Ru0.13Y2.04,7.0,original
La1.11Os3.03P22.25Ru8.24,7.0,original
La1.11Os6.17P22.25Ru5.45,7.0,original
Mg3.17Ni7.28,7.0,original
C10.41Cs7.85Na7.87,7.0,original
C12.16,7.0,original
Mo3.59P1.78,7.0,original
Br13.84C0.24I7.67Y4.44,7.0,original
Ge4.08La1.11,7.0,original
Al0.35B1.62Mg1.86,7.0,original
Fe4.86P22.25Y2.04,7.0,original
Al0.19V0.46,7.0,original
B1.62Ho10.97Ni4.77,7.0,original
Nb1.1Se1.28,7.0,original
Lu10.06Si1.59,7.0,original
Al0.98Na3.91Si0.25,7.0,original
B0.73Li14.58Pd6.02,7.0,original
Sr1.46,7.0,original
La1.11Mo7.34S8.78,7.0,original
B0.73Li14.58Ni0.56Pd5.41,7.0,original
Au7.67Ba0.64Ge9.94Pt7.15,7.0,original
As0.65Fe1.02Na3.51,7.0,original
Fe1.02Se0.42,7.0,original
As0.48Fe1.02La1.11P0.29,7.0,original
As0.65F0.41Fe1.02La0.97,7.0,original
As0.65F0.17Fe1.02La1.11,7.0,original
As1.47Fe1.79Pt0.83Sr1.46,7.0,original
K3.14O0.2,7.0,original
As1.47Fe1.66Ru1.25Sr1.46,7.0,original
Ca3.54Ir6.85Sn11.37,7.0,original
As1.47Fe2.3K4.77,7.0,original
Fe1.02Se0.5,7.0,original
Au0.69Sb1.02,7.0,original
N4.58Nb0.59,7.0,original
Ti2.89V0.18,7.0,original
As1.47Ba0.46Fe2.3K0.78,7.0,original
P0.66Pt7.15Si0.11Sr1.46,7.0,original
As1.47La1.11Ru5.45,7.0,original
Te4.87W5.25,7.0,original
Bi3.16Te7.36,7.0,original
Ba0.64H32.82Re1.43,7.0,original
Sn2.54Y2.04,7.0,original
Ir6.85Sn11.37Sr4.98,7.0,original
Nb1.1,7.0,original
Bi2.66Ca0.8Cu0.76O1.59Pb0.86Sr3.22Y0.13,70.0,original
Ba1.72Cu1.33O1.28Y2.04,70.0,original
Ba1.72Co0.32Cu1.33O1.27Y1.8,70.0,original
Bi2.15Ca1.79Cu1.39Ga0.41O1.31Pb1.83Sr3.22,70.0,original
Bi3.16Ca1.05Cu0.76O1.59Sr3.22,70.0,original
Ba1.72Cu1.29O1.31Y2.04,70.0,original
Ba1.72Cu2.02O1.59Sm6.8,70.0,original
Ba1.13Ca0.18Cu1.39La1.47O1.35,70.0,original
Ba1.72Cu1.39O1.25Y2.04,70.0,original
Ba1.72Cu1.39O1.26Y2.04,70.0,original
Ba0.64Cu1.33O1.31Sr1.46Y2.04,70.0,original
Ca1.05Cu0.76F5.12O0.75Sr3.22,70.0,original
Bi3.5Ca1.05Cu0.76O1.59Sr2.73,70.0,original
Ba1.72Cu1.39Nd4.84O1.03S0.95,69.0,original
Ba1.72Cu1.22O1.34Y2.04,69.0,original
Ba1.4Cu1.39Nd6.34O1.31,69.0,original
Ba1.72Cu1.2Fe0.13O1.34Y2.04,69.0,original
Ba1.72Cu2.02Gd8.95O1.59,69.0,original
Al0.98Ca2.29Cu1.39O2.01Sr3.22,69.0,original
Cu1.39O1.56Sr3.22Y2.04,69.0,original
Cu1.39O1.49Sr3.22Y2.04,69.0,original
Cu0.76O1.4Re0.17Sr3.22Y2.04,69.0,original
Ba0.64Ca1.05Cu1.39La1.11O1.31,69.0,original
Ba1.72Co0.77Cu1.27O1.27Y1.56,69.0,original
Cu1.39Eu6.12O1.62Pb6.37Sr3.22,69.0,original
Ba1.72Cu1.39O1.23Y2.04,69.0,original
Ba1.72Cu1.39O1.2Y2.04,69.0,original
Ba1.72Cu1.36Er7.65O1.29,69.0,original
Ba1.72Cu0.12Hg7.24O0.49,69.0,original
Ba1.72Cu2.02Ga0.18O1.59Y1.56,69.0,original
Ba1.72Cu2.02Eu6.81O1.59,69.0,original
Ba1.61Cu2.02O1.56Y1.92,69.0,original
Ba1.72Cu1.39O1.24Y2.04,69.0,original
Ba1.72Cu1.39O1.2Y1.8,69.0,original
Ba1.51Cu2.02Ho10.97O1.59,69.0,original
Ba1.72Cu2.02O1.59Y2.04,69.0,original
Ba1.24Cu1.39La1.47O1.36,69.0,original
Ba0.64Cu1.33O1.31Sr1.46Y2.04,69.0,original
Ba1.02Ca0.3Cu1.39La1.47O1.33,69.0,original
Ba1.72Ca0.55Cu0.76Hg10.19O1.51Tl2.6Y0.61,69.0,original
Ba1.72Cu2O1.59Y2.04,69.0,original
Ba1.29Ca0.18Cu1.39O1.24Sr0.4Yb6.91,69.0,original
Ba1.72Cu2.02Ho10.97O1.59,69.0,original
Bi3.16Ca1.3Cu0.76O1.59Sr2.87,69.0,original
Ba1.72Cu1.32O1.28Ti0.38Y2.04,69.0,original
Bi3.16Ca0.86Cu0.76O1.59Sr3.22,69.0,original
Ba1.08Cu2.02Ho10.97O1.59Sr0.75,69.0,original
Ba1.72Cu1.39O1.47Pr0.13Y1.56,69.0,original
Ba1.72Cu1.39Eu6.12O1.31,69.0,original
Ba1.72Cu1.39La0.97O1.31,69.0,original
Bi2.15Ca2.04Cu1.39Ga0.18O1.31Pb1.83Sr3.22,69.0,original
Ba1.72Cu1.39Nd4.44O1.31,69.0,original
Bi3.16Ca1.05Cu0.76O1.66Sr3.22,69.0,original
Ba1.72Cu0.76O2.15Sr3.22Tl4.41,69.0,original
Ba1.29Cu1.39La0.25O1.35Y2.04,69.0,original
Ba1.29Cu2.02Ho10.97O1.59Sr0.4,69.0,original
Al0.43Ba1.72Cu1.09O1.24Y2.04,68.0,original
Ba1.72Cu1.39O1.22Y2.04,68.0,original
Cu0.76Hg2.09O2.15Pb2.16Sr6.74,68.0,original
Ba1.72Cu2.02O1.59Pr0.13Y1.56,68.0,original
Ca0.3Cu0.76Ga1.1O1.31Sr2.87Y1.09,68.0,original
Ba1.72Cu0.13Hg7.24O0.48,68.0,original
Ba1.72Cu1.39O1.26Pr0.13Y1.56,68.0,original
Ba1.72Ca0.18Cu1.39Lu2.27O1.15,68.0,original
Ba3.88Cu3.91Eu12.35O3.48Pr0.13,68.0,original
Ba3.88Cu3.91O3.47Pr0.28Tm12.39,68.0,original
Ca0.43Cu1.39F1.21O1.59Pb6.37Sr3.22Y0.85,68.0,original
Ba1.72Cu1.39H0.81O1.25Y2.04,68.0,original
Ca2.04Cu1.39O1.94P0.85Sr3.22Y0.13,68.0,original
Ba2.8Ca1.05Cu3.65Fe0.28La3.26O3.99Y0.85,68.0,original
Ba1.24Cu1.39La0.33O1.36,68.0,original
Ca1.05Cu0.76O1.26Sr3.22Tl4.41,68.0,original
Ba0.64Cu1.27O1.4Sr1.46Y2.04,68.0,original
Ba1.72Cu2.01O1.59Y2.04,68.0,original
Ba1.72Cu1.33Dy10.45O1.23,68.0,original
Ba1.72Cu1.39O1.31Pr0.13Y1.56,68.0,original
Ba1.72Cu1.28Ni0.26O1.31Y2.04,68.0,original
Ba1.18Cu1.39La0.97O1.27Sr0.58,68.0,original
Ca0.55Cu0.76O1.31Sr3.22Tl4.41Y0.61,68.0,original
Cu1.39O1.29Sr3.22Y2.04,68.0,original
Ca0.43Cu1.08Ho5.45O1.31Pb1.51Sr3.22,68.0,original
Ba1.72Cu1.39Gd7.59O1.31,68.0,original
Ba1.61Cu2.02O1.54Y2.04,68.0,original
Bi2.15Ca1.3Cu1.39Ga0.87O1.31Pb1.83Sr3.22,68.0,original
Ba1.72Cu1.39O1.24Sm6.8,68.0,original
Ba1.72Cu1.36O1.3Y2.04,68.0,original
Ba1.72Cu1.36O1.25Y2.04,68.0,original
Ba1.29Ca0.18Cu1.39O1.24Sr0.4Yb6.91,68.0,original
Bi2.66Ca1.05Cu0.76Pb0.86Sr3.22,68.0,original
Ba1.51Cu1.39O1.39Y2.04,68.0,original
Ba1.72Ca0.12Cu1.39Er5.71O1.28,68.0,original
Ba1.72Cu1.39O1.5Pr0.13Y1.56,68.0,original
Ba1.72Co0.55Cu1.3O1.27Y1.68,68.0,original
Ba1.72Ca0.12CoCu1.24O1.26Y1.44,68.0,original
Ba2.8Ca0.55Cd4.69Cu3.91La3.98O3.94,68.0,original
Bi2.15Ca1.92Cu1.39Ga0.29O1.31Pb1.83Sr3.22,68.0,original
Ba1.72Cu1.39Nd4.84O1.27,68.0,original
Ba1.72Cu1.39O1.23Y2.04,68.0,original
Ba1.72Cu1.39O1.2Y1.56,68.0,original
Bi3.16Ca1.05Cu0.76O1.66Sr3.22,68.0,original
Ba1.72Cu1.39O1.28Pr0.21Yb6.91,68.0,original
Ba1.72Cu1.36O1.28Y2.04,68.0,original
Ba1.72Cu1.39O1.31Pr0.13Y1.09,68.0,original
Ba1.13Ca0.18Cu1.39La1.47O1.34,68.0,original
Bi2.49Ca2.29Cu1.39O2.24Pb1.18Sr3.22,68.0,original
Ba1.72Cu1.22Ga0.26O1.31Y2.04,68.0,original
Ba1.72Cu1.36O1.31Y2.04,68.0,original
Ba1.4Cu1.39La0.11O1.31Y2.04,67.0,original
Bi3.16Ca1.67Cu0.76O1.66Sr2.34,67.0,original
Ba1.72Cu1.39O1.31Pr0.13Y1.56,67.0,original
Ba1.72Cu2.02Eu6.81O1.59,67.0,original
Ba1.72Cu1.39O1.23Y2.04,67.0,original
Ca0.3Cu1.08O1.3Pb1.51Sr3.22Y1.09,67.0,original
Bi3.16Ca0.92Cu0.76I10.24O1.59Sr3.22,67.0,original
Ba1.72Cu1.39O1.27Y2.04,67.0,original
Ba1.72Cu1.3Ni0.18O1.27Y1.68,67.0,original
Ba1.61Cu1.39O1.27Y2.04,67.0,original
Ba0.86Ca0.3Cu1.39La0.83O1.35Y1.09,67.0,original
Ba1.72Cu2.01O1.59Y2.04,67.0,original
Cu1.39O1.52Sr3.22Y2.04,67.0,original
Ca0.49Cu0.76Hg4.67Nd2.09O1.26Sr3.22V0.22,67.0,original
Ba1.72Ca2.29Cu1.39O1.87,67.0,original
Bi2.82Ca1.05Cu0.76O1.59Pb0.53Sr3.22,67.0,original
Ba1.72Cu1.37O1.25Y2.04,67.0,original
Ba1.72Cu1.33Dy10.45O1.24,67.0,original
Ba0.64Ca0.43Cu1.39La1.83O1.35,67.0,original
Ba1.72Cu1.39O1.21Y2.04,67.0,original
Ba3.88Cu3.91O3.53Y4.44,67.0,original
Ba1.72Cu1.39O1.22Y2.04,67.0,original
Bi2.66Ca0.68Cu0.73O1.59Pb0.86Sr3.22Y0.37,67.0,original
Ba0.86Cu1.39Nd4.84O1.3Sr1.11,67.0,original
Bi2.15Ca1.05Cu1.39Ga1.1O1.31Pb1.83Sr3.22,67.0,original
Ba1.72Cu1.39O1.48Pr0.13Y1.56,67.0,original
Ba1.72Cu1.39O1.49Pr0.13Y1.56,67.0,original
Ba1.72Cu2.02O1.59Pr0.21Y1.32,67.0,original
Ca0.43Cu0.76Fe0.38Hg3.57O1.22Sr3.22Y0.85,67.0,original
Ba1.72Ca0.68Cu0.76Hg10.19O1.5Tl2.6Y0.37,67.0,original
Ba1.29Ca0.18Cu1.39O1.15Sr0.4Yb6.91,67.0,original
Ba1.72CoCu1.24O1.33Y2.04,67.0,original
Ba1.72Cu1.36O1.27Y2.04,67.0,original
Ba1.72Cu1.39Gd7.14O1.22,67.0,original
Ba1.72Cu2.02O1.59Y2.04,67.0,original
Ba1.72Cu1.02Ni1.3O1.3Y2.04,66.0,original
Ba0.64Ca1.05Cu1.39La1.11O1.27,66.0,original
Bi3.16Ca0.43Cu0.76O1.7Sr3.22Y0.85,66.0,original
Cu1.27O1.37Sr3.22WY2.04,66.0,original
Ba1.72Ca0.1Co1.5Cu1.17O1.3Y1.47,66.0,original
Bi3.16Ca0.55Cu0.76I10.24O1.59Sr3.22Y0.61,66.0,original
Ba1.08Cu1.39La0.54O1.35Y1.56,66.0,original
Ba1.72Ca0.3Cu1.39Er3.39Hf1.4O1.34,66.0,original
Ba3.88Cu3.91Nd9.83O3.41,66.0,original
Ba1.29Ca0.12Cu1.39O1.18Sr0.4Yb7.41,66.0,original
Ba0.64Ca1.05Cu1.39La0.4O1.31Sm3.34,66.0,original
Ba1.72Cu2.02O1.59Y1.8,66.0,original
Ba1.72Ca0.43Cu2.34Er1.84La2.19O2.33,66.0,original
Ba1.72Cu1.39H1.17O1.31Y2.04,66.0,original
Ba1.4Cu1.39Lu2.44O1.28Pr0.17Sr0.22,66.0,original
Ba1.72Cu1.33O1.28Sm6.8,66.0,original
Ba1.72Cu2.02O1.59Pr0.13Y1.56,66.0,original
Ba1.61Co0.32Cu1.33O1.29Y2.04,66.0,original
Cu0.13Hg6.14O0.48Sr3.22,66.0,original
Ba1.18Cu1.39La1.04O1.28Sr0.58,66.0,original
Ba1.72Ca3.54Cu2.02F9.3O1.65,66.0,original
Ca0.43Cu1.08Dy5.18O1.31Pb1.51Sr3.22,66.0,original
Ba1.72Cu1.39Gd8.04O1.29,66.0,original
Ba1.72Cu1.39O1.61Pr0.13Y1.56,66.0,original
Ba1.72Cu1.39O1.3Sm6.11,66.0,original
Bi3.16Ca1.05Cu0.74O1.59Sr3.22,66.0,original
Ba1.72Cu1.19Ga0.33O1.31Y2.04,66.0,original
Ba1.72Cu1.39O1.26Y1.8,66.0,original
Ba1.61Cu1.39Nd5.34O1.33,66.0,original
Ba1.72Cu1.39O1.53Pr0.13Y1.56,66.0,original
Ba1.72Cu1.11Ga0.47O1.31Y2.04,66.0,original
Ba1.13Ca0.18Cu1.39La1.47O1.34,66.0,original
Ba1.72Cu1.39O1.2Y1.8,66.0,original
Ba1.72Cu1.39O1.22Yb9.91,66.0,original
Ba1.18Cu1.39La1.11O1.3Sr0.58,66.0,original
Ba1.73Cu1.27Ni0.28O1.23Y2.04,65.0,original
Ba3.88Cu3.28La2.55O3.21,65.0,original
Ba1.72Co0.55Cu1.3O1.32Y2.04,65.0,original
Ba1.72Cu1.35O1.3Y2.04Zn0.12,65.0,original
Ca0.28Cu1.39O1.59Pb6.5Sr3.34Y1.11,65.0,original
Ca0.43Cu1.39O1.76Pb6.37Sr3.22Y0.85,65.0,original
Bi3.16Ca1.05Cu0.76O1.65Sr3.22,65.0,original
Ba1.72Cu1.28Er7.65Ni0.26O1.31,65.0,original
Bi2.15Ca0.3Cu0.76Nd2.84O1.66Pb1.83Sr3.22,65.0,original
Ca0.25Cu1.39O1.59Pb6.37Sr3.22Y1.18,65.0,original
Ba1.72Cu1.36O1.28Y1.92,65.0,original
Ba1.4Cu1.39Nd5.34O1.28,65.0,original
Ba1.29Ca0.3Cu1.39Nd4.84O1.26,65.0,original
Ba1.08Cu1.39Nd5.84O1.24Sr0.4,65.0,original
Cu0.76O1.4Sr3.22Y2.04,65.0,original
Ba1.72Cu1.39Lu2.61O1.18,65.0,original
Ba0.64Ca1.05Cu1.39O1.31Sm5.07,65.0,original
Ca4.78Cr0.23Cu2.97O3.08Sr3.22,65.0,original
Ba1.72Cu1.95O1.59Y2.04,65.0,original
Ca0.55Cu0.76Gd3.51O1.31Sr3.22Tl4.41,65.0,original
Ba1.72Cu1.36O1.3Y2.04,65.0,original
Ba1.72Cu1.32Er7.65O1.3,65.0,original
Ba1.72Cu1.39Eu5.43O1.23Pr0.13,65.0,original
Ba2.37Ca1.05Cu3.73Gd8.04In0.38La2.69O3.97Sr0.4,65.0,original
Cu0.89O1.62Ru2.09Sr3.22Y2.04,65.0,original
Ca1.05Cu1.38O1.31Pb1.51Sr3.22Tl2.14,65.0,original
Fe1.02Se0.54,65.0,original
Ba1.72Cu0.13O1.08Tl8.96,65.0,original
Ba1.72Cu1.36O1.31Y2.04,65.0,original
Ba1.72Cu1.15Ga0.4O1.31Y2.04,65.0,original
Ba0.64Ca0.99Ce0.11Cu1.39La1.11O1.29,65.0,original
Ba1.72Cu1.39Er6.1Hf1.4O1.23,65.0,original
Ba1.72Cu2O1.59Y2.04,65.0,original
Ba1.72Cu1.39O1.28Y2.04,65.0,original
Ba1.72Cu1.39O1.23Y2.04,65.0,original
Ba1.72Cu1.36O1.25Y2.04,65.0,original
Ba1.72Cu2.01O1.59Y2.04,65.0,original
Bi3.16Ca1.05Cu0.76I2.01O1.66Sr3.22,65.0,original
Ba1.72Cu1.39O1.22Y2.04,65.0,original
Ba1.72Cu1.39O1.23Tm7.72,65.0,original
Ba1.72Cu1.39Gd6.23O1.31Pr0.13,65.0,original
Ba1.72Cu1.39O1.6Pr0.13Y1.56,65.0,original
Ba1.29Ca0.18Cu1.39O1.15Sr0.4Yb6.91,65.0,original
Ba1.72Cu1.36O1.28Yb9.91,65.0,original
Bi6.54Ca1.05Cu2.02O3.82Sr4.98Y4.44,65.0,original
Ba1.72Cu1.39O1.3Pr0.21Tm5.38,65.0,original
Ba3.45Cu3.28La1.69O3.32Y2.04,64.0,original
Ba1.72Co0.36Cu1.32O1.31Y2.04,64.0,original
Bi3.16Ca0.55Cu0.76O1.67Sr3.22Y0.61,64.0,original
Ba1.72Cu1.39O1.26Y2.04,64.0,original
Ba1.72Cu2.02Li0.35O1.59Y2.04,64.0,original
Ba1.72Cu1.27Ni0.31O1.25Y1.56,64.0,original
Ba0.64Cu1.2Ga0.29O1.31Sr1.46Y1.56,64.0,original
Ba0.21Cu0.13F10.35Sr2.16,64.0,original
Ba1.72Cu1.9O1.59Y2.04,64.0,original
Ba0.64Cu1.39Nd4.84O1.29Sr1.46,64.0,original
Ba0.64Ca1.05Cu1.39La1.11O1.3,64.0,original
Ba1.72Co0.68Cu1.28Er7.18O1.25,64.0,original
Ba1.08Ca0.1Co0.96Cu1.24Er5.79O1.27Sr0.75,64.0,original
Ba1.72Cu1.36O1.24Y1.92,64.0,original
Ba1.72Ca0.55Cu2.4Gd2.61La2.12O2.4,64.0,original
Ba1.61Cu1.39O1.59Y2.04,64.0,original
Cu1.39O1.37Sr3.22Y2.04,64.0,original
Ba1.72Cu1.32O1.3Y2.04Zn0.21,64.0,original
O1.03Ru1.25Sr3.22Y2.04,64.0,original
Ba1.72Cu1.24Ni0.43O1.31Y2.04,64.0,original
Ba1.72Cu1.39O1.23Y2.04,64.0,original
Ba1.72Cu1.33O1.27Y2.04,64.0,original