formula,Tc
Nb1.71V1.29Au1,1.600
Cu0.9Co1.9S4,1.600
Tm1Ni1.88Co0.24B2C1,1.600
Cu1Se2,1.600
Dy1Mo6S8,1.600
Tm1Ir4B4,1.600
Ce1Co0.5Rh0.5In5,1.600
Er0.9Y0.1Pd2Sn1,1.600
Ho1Rh2.4Ru1.6B4,1.600
U1Pd2Al3,1.600
Pd0.541Nb0.003Sb0.456,1.600
Rh0.015Ti0.985,1.600
Sn0.057V0.943,1.600
Mo6S8,1.600
Ir0.33V0.67,1.600
Ce0.01Y0.99,1.600
Al2Ge2U1,1.600
B2Ru1,1.600
Ce0.9La0.1Rh1In5,1.600
Y0.95Ce0.05B6,1.600
Y0.5La0.5B6,1.600
Ta1S2,1.600
Hf2Rh1,1.600
Sr1Fe1.9Pt0.1As2,1.600
Ga0.3V2Al20,1.600
Sn0.618Pb0.333In0.05Te1,1.600
Pr1Ni1As1H0.06O0.94,1.600
Ba6Nb10O30,1.600
Ni1Sm1,1.600
Ba1Pt2As2,1.600
Ce1Bi1S2O1,1.600
Eu0.5La0.5F1Bi1S1.8Se0.2,1.600
Y1Pt2Ge2,1.600
Ru0.75Rh0.25As1,1.600
Bi2Pd1,1.600
Ce1Ir1Si3,1.590
Al1Ta3,1.590
Ca1Si2,1.580
Pt1Tl2,1.580
Re0.65Ta0.35,1.580
Pr1Os3.6Ru0.4Sb12,1.580
Eu0.015La0.985,1.580
Pd0.56W0.44,1.580
Au0.35Te0.65,1.580
La1Ir2Si2,1.580
La3Ru2Sn13,1.580
Ce1Co1In4.94Sn0.06,1.570
Ge1.78La1,1.570
La1Tl3,1.570
Pt2Y1,1.570
Ce1Rh0.2Co0.8In5,1.570
Ca0.67Pt3B2,1.570
Ti0.5Zr0.5,1.570
Pd0.530Co0.005Sb0.465,1.570
Pd0.541Ru0.003Sb0.456,1.570
Tm5Rh3.6Co2.4Sn18,1.570
La0.8Ce0.2Pt4Ge12,1.570
Ce1Co1In4.94Sn0.06,1.560
Ce1Rh0.29Co0.71In5,1.560
Cu1S2,1.560
Sb1Sn1,1.560
Mo0.67Zr0.33,1.560
Au0.976Pd0.024Ga2,1.560
Pd0.539Sc0.006Sb0.455,1.560
Pd0.530Cu0.004Sb0.466,1.560
Au0.18Te0.82,1.560
La1Ir2Si2,1.560
Li0.9Mo6O17,1.560
Ni1Zr2,1.560
Ce1Ir1Si3,1.560
Ce1Co0.91Pt0.09In4.938Hg0.062,1.560
Ba24Si100,1.550
In0.87Te1,1.550
Ge3Te4,1.550
Al1N1,1.550
Zr1Rh1P1,1.550
La1Ir2Si2,1.550
La3Ru4Sn13,1.550
Pr1Os3.2Ru0.8Sb12,1.540
Pa0.75Zr0.25,1.540
Os0.3Re0.7,1.540
Au0.22Te0.78,1.540
Ni2Nb1Ga1,1.540
Hf2Rh1,1.540
Ga0.3V2Al20,1.540
Sr1Au1Si3,1.540
Na1Sn2As2,1.540
Pd1Te1,1.530
U1Ru2Si2,1.530
Y0.5Th0.5Ru3B2,1.530
Pr1Os3.4Ru0.6Sb12,1.530
Pd1Te2,1.530
Th0.65Y0.35,1.530
Mo0.1Nb0.765Pd0.135,1.530
Ga0.05V2Al20,1.530
Ga0.1V2Al20,1.530
Ga0.15V2Al20,1.530
Ir3Th7,1.520
Tl3Y1,1.520
Ni1Zr2,1.520
Ru2Y1,1.520
Cu1S1,1.520
H0.12Nb0.8Pd0.2,1.520
Os0.01Zr0.99,1.520
Ce1Ir0.75Co0.25In5,1.520
La1Pt1Si3,1.520
Ba1Pt2As2,1.520
Cu0.05Ti1Se2,1.520
Ce1Ir1Si3,1.520
Bi0.3Zr0.7,1.510
Os3Th7,1.510
Rh1Te2,1.510
Bi0.3Zn0.7,1.510
U1Pd2Al2.94Ga0.06,1.510
Ca1Si2,1.510
Au0.098Pd0.02Ga2,1.510
Th0.67Nd0.33Ru2,1.510
Th0.9Y0.1,1.510
Au0.98Pd0.02Ga2,1.510
U1Ru2Si2,1.510
Th1Ir2Ge2,1.510
Bi4Sr4Ca0.5Tm1.5Cu4O16.91,1.500
Sr2Ru1O4,1.500
Am1,1.500
Co3Y4,1.500
Lu4Co6Sn19,1.500
Ce1Rh0.6Co0.4In5,1.500
Ag7F2H1O8,1.500
Ag0.45Ge0.55,1.500
Al0.999Fe0.001,1.500
Al0.39Mg0.61,1.500
Be5Ir1,1.500
Ce1Co2,1.500
Co0.96Mo0.04U6,1.500
Cu1S1Se1,1.500
Nb1O1,1.500
Nb3Si1,1.500
Nb0.025Ti0.975,1.500
Ni0.1Zr0.9,1.500
Os0.1W0.9,1.500
Tc0.1V0.9,1.500
Pb1Sb1,1.500
K0.4O3W1,1.500
La0.999Ce0.001Pt1Si1,1.500
Au1Nb3,1.500
Eu1Th3.4Ru0.6B4,1.500
La1Tl1.5Sn1.5,1.500
Cs1,1.500
La1Tl3,1.500
Pd0.530Ni0.005Sb0.465,1.500
In2Mo15Se19,1.500
Nb0.72Pd0.18W0.1,1.500
Sc4Os6Sn19,1.500
Pd1Sb1,1.500
Lu1,1.500
U1Ru2Si2,1.500
Lu4.93Yb0.07Ir4Si10,1.500
Ag7H1F2O8,1.500
La1Ir2Ge2,1.500
B105,1.500
Cu0.044Ti1Se2,1.500
Zr1Rh1P1,1.500
Ga0.3V2Al20,1.500
La1Pt3P1,1.500
Sr1Pd1Ge3,1.500
Y1Pt2Si2,1.500
La1Pt2Si2,1.500
La0.985Ce0.015Ni1C2,1.500
B2Ru1,1.500
Eu3Bi2S4F4,1.500
Ce1Ir1Si3,1.500
Te2U1,1.500
Sr2Ru1O4,1.490
Ge2La1,1.490
Y1In1.71Sn1.29,1.490
Pd0.95Ni0.05H0.86,1.490
La2.4Pr0.6Se4,1.490
Re0.1Ta0.9,1.490
Ti1.38V1.62Sb1,1.490
Al20.3V2,1.490
Al20.3V20,1.490
La1Te1,1.480
Rh2Y3,1.480
Sn0.855Ge0.095In0.05Te1,1.480
La7Pd3,1.480
Tm1Ir3.6Rh0.4B4,1.480
Co0.03V0.97,1.480
Pd0.5Sb0.5,1.480
La0.1Th0.9,1.480
Au0.2Te0.8,1.480
Pr0.75Nd0.25Os4Sb12,1.480
Ba1Ti2Sb2O1,1.480
U2Pt1C2,1.470
Be0.95Ru0.05,1.470
C2Pt1U2,1.470
Ce0.9Yb0.1Co1In5,1.470
Rb1Hg1C8,1.460
Re0.64Ta0.36,1.460
Al0.131Cr0.088V0.781,1.460
La0.76Th0.24Pb3,1.460
Pd0.543Mn0.001Sb0.456,1.460
V0.81Cr0.09Al0.1,1.460
In0.08Sn0.92Te1.01,1.450
Bi1Pt1Se1,1.450
Pt0.3Ta0.7,1.450
Pt0.5W0.5,1.450
Tl1,1.450
Th1Ir1.2Ru0.8,1.450
Mo0.1Nb0.72Pd0.18,1.450
Al1Ce0.017La3,1.450
Ge1Mo3,1.450
C1Si1,1.450
Si1C1,1.450
U1Ru2Si2,1.450
La1Ir1Si3,1.450
Eu3Bi2S4F4,1.450
U2Pt1C2,1.450
Sr2Ru1O4,1.440
C2La1,1.440
Pr1Os3.2Ru0.8Sb12,1.440
Er0.08La0.92,1.440
Pd0.49Sb0.51,1.440
La1Pd2Ge1.92Sn0.08,1.440
Ce0.9Sm0.1Co1In5,1.440
In0.05Sn0.95Te1.01,1.430
Ce1Rh0.4Co0.6In5,1.430
Ge1Mo3,1.430
Er0.08La0.92,1.430
Pr0.8Nd0.2Os4Sb12,1.430
Ga0.3V2Al20,1.430
La0.991Tb0.009Al2,1.425
Sr2Ru1O4,1.420
Ce0.25La0.75Ru2,1.420
Sn0.588Ge0.252In0.16Te1,1.420
La0.9Nd0.1Pt1Si1,1.420
Ce1Rh0.3Co0.7In5,1.420
Nd0.4Ce0.85Co1In5,1.420
U1Ru2Si2,1.420
Sn0.975In0.025Te1,1.420
Ti1Ir1Si1,1.420
Cr0.82Ru0.18,1.420
Ni0.270Zr0.694Mn0.037,1.410
C8Rb1Hg1,1.410
U1Ru2Si2,1.410
Sn0.95In0.05Te1,1.410
U2Pt0.95Rh0.05C2,1.410
Ce1Co0.875Ni0.125In5,1.410
Sr1Ni2P2,1.410
Ce1Ag2Si2,1.410
Ce1Co0.91Pt0.09In4.975Hg0.025,1.410
Cd2Re2O7,1.400
Ba24Si100,1.400
Sr0.2W1Se2,1.400
Rb1Hg1C8,1.400
Pd2Y0.8Dy0.2Sn1,1.400
Cu0.05Ti1Se2,1.400
Bi1Cu1,1.400
Cu4K1S3,1.400
Fe0.75Ni0.25U6,1.400
Ge0.5Pt0.5,1.400
Ni0.05Pd0.95Te2,1.400
Pa1,1.400
Rh0.91Ti0.04Y0.05,1.400
Ti0.975V0.025,1.400
In4Sb1Te3,1.400
Re0.6Ta0.4,1.400
Ca0.1O3W1,1.400
Co1Si2,1.400
Gd1.2Mo6S8,1.400
Tb1.2Mo6S8,1.400
Ce1Rh0.5Co0.5In5,1.400
Y1Ru4B4,1.400
Ho1Rh4B4,1.400
Tb1Os1.5Sn2.6,1.400
Ho1Os1.2Sn2.5,1.400
Br2,1.400
La3Pd5Si1,1.400
Th0.95Y0.05,1.400
Y1Os1B4,1.400
Sc4Ir6Sn19,1.400
Gd1Mo6S8,1.400
Mo6S6I2,1.400
Ge1U7,1.400
Sc4Ir6Ge19,1.400
Tb4Os6Sn19,1.400
Ho4Os6Sn19,1.400
Ce1Ir1Si3,1.400
Si1C1,1.400
Pb0.985Tl0.015Te1,1.400
B0.039C0.961Si1,1.400
Sn1O1,1.400
Ba1Pb0.85Sb0.15O3,1.400
U1Ru2Si2,1.400
Zr2Co0.15Ni0.85,1.400
La1Ir2Si2,1.400
Eu3Bi2S4F4,1.400
Ce0.837Yb0.163Co1In5,1.400
Pr1Pt4Ge9Sb3,1.400
Pr1Pt4Ge8Sb4,1.400
Y1Fe2Ge2,1.400
Ba0.85Na0.15Fe2As2,1.400
La0.985Ce0.015Ni1C2,1.400
Ce1Co1Si3,1.400
Te2U1,1.400
U0.85Ru0.15,1.400
Ce0.9Pr0.1Bi1S2O1,1.400
Hg1Mg1,1.390
Ir0.33V2.67,1.390
Nb1O1,1.390
Th1,1.390
As1Ni0.12Pd0.88,1.390
As0.5Ni0.06Pd0.44,1.390
Ir1V2,1.390
Pb0.986Tl0.014Te1,1.380
Th1,1.380
Ce1Rh0.35Co0.65In5,1.380
Ce1Rh0.23Co0.77In5,1.380
Tl1,1.380
Ga3Zr1,1.380
Hf1Ti1C1,1.380
La0.987Tb0.013,1.380
Y1Ru1B4,1.380
La0.996Gd0.004Al2,1.380
Ni2Zr1Al1,1.380
Ag7H1F2O8,1.380
Pb0.985Tl0.005Na0.01Te1,1.380
Ba1Ni2Ge0.8P1.2,1.380
Sr1Pd1Ge3,1.380
La1Tl2.19Pb0.81,1.370
Ti0.65Zr0.35,1.370
U6Co0.5Ni0.5,1.370
Th1,1.370
Ca1Si2,1.370
Ca1Si2.2,1.370
Sr2Ru1O4,1.370
Ce1Co1In4.935Hg0.065,1.370
In0.06Sn0.94Te1.01,1.360
Ti0.66Zr0.33,1.360
Pt1V2.5,1.360
Th1,1.360
Cu0.3Zn0.7Ir2S4,1.360
Er1Rh1.1Sn3.6,1.360
Ti0.3Zr0.7,1.360
Cr0.25V0.75,1.360
Ta0.78W0.22,1.360
Sn0.92In0.08Te1,1.360
Ce1Co0.91Pt0.09In4.962Hg0.038,1.360
Y1Ni1Si3,1.360
Sr2Ru1O4,1.350
Ga3Nb5,1.350
La1N1,1.350
Ti0.33Zr0.66,1.350
Th1,1.350
Os0.362Re0.638,1.350
Pd0.544Cr0.000Sb0.456,1.350
Pt0.52W0.48,1.350
Y5Rh4Ge10,1.350
Ca1Si1.9,1.350
Ce1Co1In4.5Cd0.5,1.350
Pb0.988Tl0.013Te1,1.350
B0.978C0.022Si1,1.350
Sn0.92In0.08Te1,1.350
Cr0.8Ru0.2,1.350
Mo0.59Si0.41,1.340
Mo1Si0.7,1.340
As1Ni0.25Pd0.75,1.340
Sc1Os1B2,1.340
La0.8Pr0.2Pb3,1.340
Rh0.03Ti0.97,1.340
Al2Si2U1,1.340
Mo0.2Nb0.608Pd0.192,1.340
K0.42W1O3,1.340
Ti1Ru1P1,1.330
Rh0.8Ru0.2Se2,1.330
Ce1Rh1Ge3,1.330
Pb0.987Tl0.013Te1,1.320
Pb1.9Rh1,1.320
Pd1Tl2,1.320
Sn19Er4Rh6,1.320
La1.14Nb1Se3.14,1.320
Cd2Re2O7,1.310
Cr0.8Re0.2,1.310
Ce0.925La0.075Co1In5,1.310
Sb2Yb1,1.300
Na0.5Nb1S2,1.300
Al2N1Nb3,1.300
Be13Ru1,1.300
C0.6Pd1,1.300
Cd0.06Cu0.94Se2,1.300
Cd0.04Cu0.96S2,1.300
Cu1Te2,1.300
Ge2Sc1,1.300
Ni0.1Pd0.9Te2,1.300
Re1Ta1,1.300
Rh0.04Sc0.05Ti0.91,1.300
C1Fe3,1.300
Cr0.5Ru0.5,1.300
Al1,1.300
C0.44Mo0.56,1.300
C1Re0.01W1,1.300
Mo3Si1.3,1.300
P1Rh2,1.300
Sb1Sn1,1.300
Ta0.025Ti0.975,1.300
U1Ru2Si2,1.300
Ho0.8La0.2Ni2B2C1,1.300
Y1Rh1.1Sn3.1,1.300
Tm2Fe3Si5,1.300
Er1Os1.1Sn2.7,1.300
Ce1Ir1In5,1.300
Pr1Ru4Sb12,1.300
La0.05Th0.95,1.300
K2In1Mo15Se19,1.300
La0.4Ce0.6Ru2,1.300
Y4Ru6Sn19,1.300
Co1Si2,1.300
Au0.374Te0.626,1.300
Ca2Pt3Si5,1.300
Pb0.99Tl0.01Te1,1.300
In1N1,1.300
Yb1Sb2,1.300
La1Pt2Ge1.8Sn0.2,1.300
La1Pd2Sb2,1.300
Ce1Pd1Bi1,1.300
Au2Pb1,1.300
Ti1Ru1P1,1.300
Mo1Te1.8S0.2,1.300
Ce1Bi1S2O1,1.300
B2Nb1,1.300
La0.6Y0.4,1.290
Ce1Co2,1.290
Pd0.6W0.4,1.290
Al0.9Li0.1,1.290
Dy1Rh0.56Ir3.44B4,1.290
Au1Zn3,1.280
Th1,1.280
U0.9Th0.1Pd2Al3,1.280
Lu0.275Rh0.725,1.270
La0.98Sm0.021,1.270
Tm5Rh2.4Co3.6Sn18,1.270
Pr0.7Nd0.3Os4Sb12,1.270
Ru0.4Rh0.6P1,1.270
Ca1Pd2As2,1.270
Pr1Pt4Ge10Sb2,1.270
Cr0.808Ru0.182,1.270
Pt1V3.5,1.260
Er0.95Y0.05Pd2Sn1,1.260
Fe0.5Co0.5Zr2,1.260
Cu1Rh1.7Sn0.3Se4,1.260
La0.8Y0.2Ni1C2,1.260
Ho1Rh0.8Ir3.2B4,1.260
Ce0.65Pr0.35Ru2,1.250
Au1Sn1,1.250
In3Te4,1.250
Pd1Sb2,1.250
Th0.5Y0.5,1.250
Nb1O1,1.250
Ba0.14O3W1,1.250
In0.11O3W1,1.250
Tc0.1W0.9,1.250
Ho1.2Mo6S8,1.250
Ce1Ru3Si2,1.250
Pr1Ru4Sb12,1.250
Au0.988Pd0.012Ga2,1.250
Er4Os6Sn19,1.250
Fe0.5Ni0.5Zr2,1.250
La1Pd2Ge1.9Sn0.1,1.250
U0.89Mo0.11,1.250
La0.983Lu0.006Tb0.010,1.248
P3Sn4,1.240
U1Ru2Si2,1.240
La2.25Pr0.75Tl1,1.240
Au0.2Pd1.8In1Y1,1.240
U1,1.240
Er1Pd1Bi1,1.240
Nb1Pt1Si1,1.240
Ce1Co1In4.91Sn0.09Hg0.025,1.240
As3Sn4,1.230
Ti0.5Zr0.5,1.230
Pd0.468Ni0.094Sb0.437,1.230
La1Ni1Si1,1.230
Co1Si2,1.220
P1Rh1,1.220
Pd0.543Fe0.001Sb0.456,1.220
Mo0.15Nb0.68Pd0.17,1.220
Ce1Co1In4.92Sn0.08,1.220
Ce0.9La0.1Co1In5,1.220
Sn0.96In0.04Te1,1.220
Ti0.6Ta0.4Se2,1.220
Ce1Co1In4.91Sn0.09,1.220
La1Pt2Si2,1.220
Pr1Os2.4Ru1.6Sb12,1.210
Au1Zn3,1.210
Bi0.1Pt1Sb0.9,1.210
Bi1Pt1,1.210
Ce0.03La0.97,1.210
H0.81Pd1,1.210
Sn0.95In0.05Te1,1.210
Ba1Ag0.5Si1.5,1.210
Sr2Ru1O4,1.200
La1.85Sr0.15Cu0.973Zn0.028O4,1.200
Ce1Rh0.3Ir0.7In5,1.200
Cu0.813Sn0.187,1.200
Er4Rh6Sn19,1.200
In0.045Sn0.955Te1.01,1.200
Ag1La1,1.200
Au1Ga1,1.200
Au1Nb3,1.200
Bi1Pd1Te1,1.200
C1Pt2W3,1.200
Mn0.01Ti0.99,1.200
Mo0.006U0.944,1.200
Nb0.6Ru0.4,1.200
Pd1Sb1Te1,1.200
Ge0.7Mo1,1.200
Pd1Se1Te1,1.200
Ir0.35Ta0.65,1.200
Ag0.1In0.9Te1,1.200
Al1Pb1,1.200
Hg2K1,1.200
Ta0.8W0.2,1.200
Nb0.97Cr0.03N1,1.200
Nb0.99Cr0.01N1,1.200
I2,1.200
Sn0.95In0.05Te1,1.200
U1Ru2Si2,1.200
Ce1Ir1In5,1.200
Pd0.5Ag0.5Th2,1.200
Cr0.125Ru0.875,1.200
Ho0.042La0.958,1.200
Ce1Rh1In4.84Sn0.16,1.200
U0.85La0.15Pd2Al3,1.200
U0.7La0.3Pd2Al3,1.200
U0.4La0.6Pd2Al3,1.200
U1Pd1.98Al3,1.200
La1Sb2,1.200
Ba1Ti2Sb2O1,1.200
Ru1Sb1,1.200
Nb2Pd0.67Se5,1.200
Au2Pb1,1.200
Y1Fe2Ge2,1.200
Sn0.8Ag0.2Te1,1.200
Ta1Se1.6Te0.4,1.200
Ta1Se1.5Te0.5,1.200
Na1Sn2As2,1.200
Ce0.6Yb0.4Co1In5,1.200
La1In1.5Sn1.5,1.190
La1Tl0.75Sn2.25,1.190
Ce0.5Yb0.5Co1In5,1.190
Ba1Ti2Sb2O1,1.190
Ce0.85Yb0.15Co1In5,1.190
Ce1Co1In4.91Sn0.09,1.190
Th1U0.025,1.182
Al1,1.180
Au2Pb1,1.180
Ir1Te3,1.180
La1Pb1.5Sn1.5,1.180
Rh0.8Y0.2,1.180
Os0.432Re0.568,1.180
Na1Sn2As2,1.180
Sr2Ru1O4,1.170
Al1,1.170
N0.6Ti1,1.170
Au0.499Ga0.501,1.170
Er1Pd2Sn1,1.170
Yb1Pd2Ge2,1.170
Ga0.58Sb0.42,1.170
Dy1Rh0.8Ir3.2B4,1.170
Nb2Pd1S3Se2,1.170
Pb0.989Tl0.011Te1,1.160
As3Sn4,1.160
Pr1Os0.2Ru3.8Sb12,1.160
La0.967Pr0.033Tl3,1.160
Rh0.01Ti0.99,1.160
Al1,1.160
U0.99Gd0.01Pd2Al3,1.160
Ce1Rh1In5,1.160
In0.83Te1,1.150
In3Te4,1.150
Bi1Pt1Te1,1.150
U1Pd2Al2.85Ga0.15,1.150
Au1Ga2,1.150
Ga2La1,1.150
Ce1Au2Si2,1.150
La1Nb2Al20,1.150
Sr2Ru1O4,1.140
Cu0.489Zr0.511,1.140
Cu0.256Zr0.714Mn0.030,1.140
In0.04Sn0.96Te1.01,1.140
Pr1Os2.4Ru1.6Sb12,1.140
Au1Ga2,1.140
Pb0.99Tl0.01Te1,1.140
U1Ni2.02Al3,1.140
Y1Pd2Ge2,1.140
Sr2Ru1Ti0.001O4,1.130
Ag2Pb3S1,1.130
Ag2Pd3S1,1.130
Pd0.529V0.006Sb0.465,1.130
Al0.95Li0.05,1.130
Pr1Os2.4Ru1.6Sb12,1.130
U0.99Y0.01Pd2Al3,1.130
U1Ni1.98Al3,1.130
Ru0.7Rh0.3P1,1.130
Au1Ga2,1.120
Cs0.32O3W1,1.120
La1Pd2Ge2,1.120
V2Ir1B2,1.120
Ni2Hf1Ga1,1.120
Mo1Te1.8Se0.2,1.120
Pr1Ti2Al20,1.120
Pr1Ru4Sb12,1.110
Be0.89Cu0.11,1.110
Gd0.001Th0.999,1.110
La1Pb2.25Sn0.75,1.110
Th0.999U0.001,1.110
Ba1Pd0.4Si1.6,1.110
Ce1Co0.91Pt0.09In5,1.110
Cd2Re2O7,1.100
Sr2Ru1O4,1.100
U1Ru2Si2,1.100
U1Ni2Al3,1.100
Zr0.125Ti0.080Cu0.055Ni0.047Be0.693,1.100
Sc4Ir6Sn19,1.100
Au5Sn1,1.100
C1Mo3Pt2,1.100
Lu1S1,1.100
Ce1Ru3B2,1.100
Cr0.7Rh0.3,1.100
K0.1Li0.02W1O2.88F0.12,1.100
Tm4Os6Sn19,1.100
Tm2Fe3Si5,1.100
La1Rh2Si2,1.100
La1Ir2Si2,1.100
Y1Ru2Si2,1.100
Y1Rh2Si2,1.100
Y1Pd2Si2,1.100
Y1Os2Si2,1.100
Y1Ir2Si2,1.100
Th1Ru2Si2,1.100
Th1Rh2Si2,1.100
Th1Pd2Si2,1.100
Th1Os2Si2,1.100
Th1Pt2Si2,1.100
U1Rh2Si2,1.100
U1Ir2Si2,1.100
Th1Ru2Ge2,1.100
Th1Rh2Ge2,1.100
Th1Pd2Ge2,1.100
Th1Os2Ge2,1.100
Th1Pt2Ge2,1.100
U1Rh2Ge2,1.100
U1Ir2Ge2,1.100
La1Ta2Al20,1.100
Y1Pd2Ge2,1.100
Te2U1,1.100
Ir2Y1,1.090
Sn0.807Ge0.142In0.05Te1,1.090
Ni2.5Cu1.5Zr8,1.090
Ce1Rh1Si3,1.090
U0.99Y0.01Pd2Al3,1.090
U2Pt0.9Rh0.1C2,1.090
Ba1Nb2S5,1.090
Sr2Ru1O4,1.080
Ga1,1.080
Pr0.2La0.8Os4Sb12,1.070
In0.03Sn0.97Te1.01,1.070
Rh5Th1,1.070
Rh3Y1,1.070
Ru1Ti1,1.070
Th7Fe1.86Co1.14,1.070
La0.998Ce0.002Rh3B2,1.070
Th0.879Tm0.121,1.070
Al0.99Li0.01,1.070
Ce1Rh1Si3,1.070
In0.82Te1,1.060
In2Sb1Te2,1.060
O1Ti1,1.060
Ag1La1,1.060
Ce1Rh1Si3,1.060
Cu1Ir1.8Pt0.2Se4,1.060
La1Mg2,1.050
Nb3Os1,1.050
Th7Fe2.43Ni0.57,1.050
Pr1Os2.8Ru1.2Sb12,1.050
La1Tl2.25Sn0.75,1.050
Al0.97Li0.03,1.050
Ce1Co0.91Pt0.09In5,1.050
Ag7N1O11,1.040
Ag7F0.25N0.75O10.25,1.040
La1Zn1,1.040
Ag7O11N1,1.040
Pr1Ru4Sb12,1.040
Pr1Os0.4Ru3.6Sb12,1.040
Pd2In1Y1,1.040
Yb1,1.040
Cr0.67Os0.33,1.030
Ti0.81Zr0.82,1.030
Ir2Sc1,1.030
Th1In1.5Sn1.5,1.030
Pd0.542Fe0.003Sb0.456,1.030
Sc1V2Al20,1.030
La1Se1,1.020
Te1Y1,1.020
Al2Cu1,1.020
In0.82Te1,1.020
U1Ni2Al3,1.020
Ce1Co1In4.9Sn0.1,1.020
Ti0.98Ta0.02Se2,1.020
Th1U0.05,1.014
Ti0.2Zr0.8,1.010
Pr0.55Nd0.45Os4Sb12,1.010
Sm0.04La0.96Ni1C2,1.010
Cd2Re2O7,1.000
Hg1Ba2Cu1O4.03,1.000
Cd2Re2O7.1,1.000
K1Ca2Nb3O10,1.000
Sr2Ru1O4,1.000
U1,1.000
Fe0.416U0.584,1.000
La1Os4Sb12,1.000
Be2Ta3,1.000
Bi1Pd1Se1,1.000
Bi3Te1,1.000
Fe0.1Zr0.9,1.000
Hf1Mo2,1.000
La0.48Y0.52,1.000
O1.07Ti1,1.000
Pd1Sb1Se1,1.000
Pt1Ta1,1.000
Ru0.4V0.6,1.000
P3Pd7,1.000
Pt0.3Ta0.7,1.000
Bi3Fe1,1.000
Bi4Mg1,1.000
C1W1,1.000
Sn18.59Er4.41Rh6,1.000
U1Ni2Al3,1.000
Lu4.5Dy0.5Ir4Si10,1.000
Y1In1.5Pb1.5,1.000
Ca1B1.25Pd3,1.000
Co1Ta1.75Zr0.25,1.000
Cu0.98Co0.02Rh2S4,1.000
Hf0.34Mo0.66,1.000
La1N1,1.000
Ba1Rh2P2,1.000
Lu1Pt1Bi1,1.000
Sr1Pt1Ge3,1.000
La1Ni1Sb2,1.000
La1Fe0.951Zn0.049As1F0.28O0.68,1.000
Y1Fe2Ge2,1.000
Lu1Pt0.96Pd1.04In1,1.000
Rb1Hg1C4,0.990
Ge3U5,0.990
Cd2Re2O7,0.990
Ce1Ir1In4.95Cd0.05,0.990
U1Be12.956B0.044,0.988
Cd2Re2O7,0.980
Fe0.546U0.454,0.980
Ir0.5Os0.5,0.980
Pt3Th7,0.980
Rh0.02U0.98,0.980
U1Ni2Al3,0.980
Y1.68Lu0.32Fe3Si5,0.980
Y1Pt1Bi1,0.980
Ba4Sr2Nb10O30,0.980
Cd2Re2O7,0.970
Pr1Ru4Sb12,0.970
Sn18.43Er4.57Rh6,0.970
Ce1Rh0.5Ir0.5In5,0.970
Pr1Os0.6Ru3.4Sb12,0.970
Th0.760Tm0.240,0.970
La1Pd2As2,0.970
Y1Pt1Bi1,0.970
Cd2Re2O7,0.960
Ag1La1,0.960
Ge1Rh1,0.960
Rh0.02U0.98,0.960
Bi2Pd3Se2,0.960
Y1In3,0.960
La1Pd2Ge2,0.960
La3Ni4Si4,0.960
Ba5Sr1Nb10O30,0.960
Y1Pd2P2,0.960
Be13U1,0.950
Cu0.045Ti1Se2,0.950
In0.63V6S8,0.950
Pr0.102Th0.898,0.950
U1Ru2Si2,0.950
Ba1Ti2Sb2O1,0.950
La1Pt1.94Ge2.06,0.950
Ba1Nb2S5,0.950
Pr1Os0.6Ru3.4Sb12,0.940
Al3Yb1,0.940
Ce1Rh0.55Ir0.45In5,0.940
Os0.56Re0.44,0.940
Sn0.12Eu0.9Mo6.35S8,0.940
Nb3Os1,0.940
Mo0.2Nb0.64Pd0.16,0.940
La0.988Tb0.012Al2,0.940
Mn1P1,0.940
Ce1Co1In4.88Sn0.12,0.930
Mg1Zn1,0.930
Pd1Si1,0.930
Pr1.85Ce0.15Cu0.99Ni0.01O4.065,0.930
Re2Sc1,0.930
Er2Fe3Si5,0.930
Ir1Sn4,0.930
Au1Zr3,0.920
Mg1Zn1,0.920
Rh0.24Sc0.76,0.920
Sn1Zr4,0.920
Mo1,0.920
Zr1,0.920
Sr1Pd2As2,0.920
Ce0.8Yb0.2Co1In5,0.920
Ce1Rh1Si3,0.920
Be13U1,0.920
Ce1Rh0.4Ir0.6In5,0.910
Au1Be1,0.910
Co0.5Ni0.5Ta2,0.910
Mo0.4Rh0.6,0.910
Pd0.539V0.006Sb0.455,0.910
La0.983Lu0.006Tb0.011,0.907
Be13U1,0.901
La1.85Sr0.15Cu0.977Ga0.023O4,0.900
Ce1Rh1Si3,0.900
Zr0.125Ti0.080Cu0.055Ni0.047Be0.693,0.900
As2W1,0.900
Co1Ta1.75Zr0.25,0.900
Ni1Ta2,0.900
Os0.075W0.925,0.900
Pt2Y3,0.900
Pt2Y8,0.900
Be13U1,0.900
U1Ni2Al3,0.900
Ce1Rh0.5Ir0.5In5,0.900
Y1Rh1Al1,0.900
Cu1Rh1.992Cr0.008S4,0.900
Th0.999U0.002,0.900
La1Bi1Pt1,0.900
C1,0.900
Sr2Ru1O4,0.900
Ce1Pd5Al2,0.900
La1Cu1Sb2,0.900
Y1Fe2Ge2,0.900
La1Ir1Si3,0.900
Pr0.6Nd0.4Os4Sb12,0.890
Be13U1,0.890
La2Ni2In1,0.890
Ag0.167Al0.833,0.880
Be0.934Ni0.066,0.880
Mg2Zn11,0.880
Pt1Si1,0.880
Rh0.24Sc0.76,0.880
Ta0.8W0.2,0.880
Be13U1,0.880
Ce1Co0.8Ni0.2In5,0.880
Bi3Zn1,0.870
Ge7Ir3,0.870
Hf2Ni1,0.870
Pt0.02U0.98,0.870
Th1Tl3,0.870
Ce1Co1.95,0.870
Ga2Ge2U1,0.870
Al3Mg2,0.870
Sr1Ni2Ge2,0.870
Eu2.5Sr0.5Bi2S4F4,0.870
K1Hg1C4,0.860
Lu1Ru2,0.860
Ni1U6,0.860
Ce1Co1.85,0.860
Be13U1,0.860
Ce0.875La0.125Co1In5,0.860
Y6Nb4Al43,0.860
Ag4Ge1,0.850
Al0.61Mg0.39,0.850
Pt0.017U0.983,0.850
Ag7N0.75O10.25F0.25,0.850
As0.33In1Te0.67,0.850
Hf0.99Rh0.01,0.850
Be13U1,0.850
Zn1,0.850
La1Pd2Al3,0.850
Be13U1,0.849
Bi2Rh3Se2,0.840
Al3Mg2,0.840
Be0.92Cu0.08,0.840
Ir1Lu2,0.840
La1S1,0.840
Al2Mg2,0.840
Ce1Co2,0.840
Ce1Rh0.5Ir0.5In5,0.840
Ba4Na2Ge25,0.840
Pr1Os1Ru3Sb12,0.840
Sn0.975In0.025Te1,0.840
Sr1Pt1Ge3,0.840
Cr0.72Ir0.28,0.830
Cr0.28Ir0.72,0.830
U1Pd2.02Al3,0.830
La1Pt1.97Ge2.03,0.830
Co1Ta2,0.820
Pt3Y7,0.820
Ce1Co2,0.820
Ce1Rh0.45Ir0.55In5,0.820
La1Pd2Ge1.96Sn0.04,0.820
Pr1Os1.2Ru2.8Sb12,0.810
Pr1Os2Ru2Sb12,0.810
Ce1Co1In4.88Sn0.12,0.810
Ce1Pt3Si1,0.800
S2Ta1,0.800
Sb1V3,0.800
Ge2U1,0.800
Pr1Os2Ru2Sb12,0.800
Ca1B1.05Pd3,0.800
La0.93Pr0.07Tl3,0.800
La0.75Pr0.25Pb3,0.800
Os0.7Re0.3,0.800
O0.95Ti1,0.800
U1Co1Ge1,0.800
Pr1Os1.2Ru2.8Sb12,0.800
C6I4O2,0.800
Ta1S2,0.800
Ce1Cu2Si2,0.800
K1Ni2Se2,0.800
Sr1.7Ca0.3V1Fe1As1O3,0.800
Ce1Ir1In4.986Sn0.014,0.800
Sr2Ru1O4,0.790
Bi2Ni3S2,0.790
Ce1Rh0.5Ir0.5In5,0.790
B2.75Be1,0.790
Am1,0.790
Rh0.005Ti0.995,0.790
Cu0.489Zr0.511,0.780
Co0.403U0.597,0.780
As0.25Se0.75Y1,0.780
Cd0.002Zn0.998,0.780
In3Y1,0.780
Ir3Lu7,0.780
Ir1Sn2,0.780
Ir1Zn2,0.780
U1,0.780
Ag0.5Al0.5Th2,0.780
Cr0.09Ir0.91,0.780
Ce0.85La0.15Co1In5,0.780
U0.94Mo0.06,0.780
Ba0.33K0.67Bi1O3,0.770
La1Ir1Si3,0.770
Cr0.835Ir0.165,0.770
Ag0.2In0.8Te1,0.770
Th0.999U0.001,0.770
Al1Ce0.017La3,0.770
Y1Pt1Bi1,0.770
Ce1Co1In4.849Sn0.089Hg0.062,0.770
Bi1.08Ta1S3.08,0.760
Be0.96Ni0.04,0.760
Ga1Mo3,0.760
Mg2Zn3,0.760
Mo0.3V0.7,0.760
Pb1Zr3,0.760
Pd3Te1,0.760
Pt0.42Y0.58,0.760
Cr0.7Ir0.3,0.760
U1Pd2Al2.55Ga0.45,0.760
S8V6,0.760
Pr1Os1.6Ru2.4Sb12,0.760
La2.25Pr0.75Se4,0.760
Bi1La2,0.760
U1Co1Ge1,0.760
Ce1.01Pt3Si1,0.750
Ce1Ir0.65Co0.35Si3,0.750
Pr1Os1.6Ru2.4Sb12,0.750
Al3Th1,0.750
Cr0.82Ir0.18,0.750
Cr0.017U0.983,0.750
Fe0.01La0.001Rh0.99,0.750
Fe0.01La0.01Rh0.98,0.750
Pd1Th2,0.750
Al3Tl1,0.750
Bi3Te1,0.750
Dy1Ni2B2C1,0.750
La1Os4Sb12,0.750
Ce1Pt3Si1,0.750
La1In2.25Sn0.75,0.750
Pr0.179Th0.821,0.750
Re0.15Ta0.85,0.750
La2Sb1,0.750
Ru0.86Rh0.14As1,0.750
Th1Pt3B1,0.750
La1Pd2P2,0.750
Y6Mo4Al43,0.750
Ce1Co1Ge3,0.750
U0.85Pt0.15,0.750
La1Os4Sb12,0.740
Cu0.589Zr0.411,0.740
B6Th1,0.740
Au1V3,0.740
Tl0.26V6S8,0.740
Ni2Hf1Al1,0.740
Nd0.4Ce0.83Co1In5,0.740
Nb1Te2,0.740
La3Ni4Ge4,0.740
Ce0.83Nd0.17Co1In5,0.740
Al6Re1,0.740
Ce1Cu2Si2,0.730
Bi2Ni3Se2,0.730
K1Hg1C4,0.730
Al1Zr3,0.730
Al0.102Ti0.898,0.730
Ir0.6Os0.4,0.730
Os0.81Re0.19,0.730
Th0.05Zr0.95,0.730
Ce1Pt2.97Si1,0.720
Be21Ni5,0.720
Sb1Ta3,0.720
Ge2U1,0.720
B2.75Be1,0.720
B3Be1.09,0.720
O0.92Ti1,0.720
Ta1S2,0.715
Co1Ti1,0.710
K1V6S8,0.710
Co0.000Mo1.000,0.710
Cr0.06Mo0.94,0.710
Sr1Rh1Ge3,0.710
Ce1Cu2Si2,0.710
La1.85Sr0.15Cu0.975Ga0.025O4,0.700
Ce1Cu2Si2,0.700
Ce1Co1Ge3,0.700
Ge2U1,0.700
Al1Au4,0.700
In3La1,0.700
In1Pd1,0.700
P3Pd7,0.700
Pt2Sr1,0.700
Bi1Mg1,0.700
Au5Sn1,0.700
Bi4Mg1,0.700
In1Pb1,0.700
Ce1Cu2.05Si2,0.700
Al0.053Ti0.947,0.700
Os0.89Re0.11,0.700
La0.95Pr0.05Se1,0.700
O0.91Ti1,0.700
Ce0.02Th0.98,0.700
Al1.000Mn0.000,0.700
Pd9Se2,0.700
Sb1,0.700
Ce1Pt3Si1,0.700
Ce2Pd1In8,0.700
U0.94Mo0.06,0.700
Nd1Pt4Ge12,0.700
Y1In2.25Sn0.75,0.690
Th0.95Zr0.05,0.690
Ce1Co1Ge3,0.690
Nb5Si3,0.690
Y1V2Al20,0.690
La1Ni2Ge2,0.690
U0.95Pd0.05,0.690
U0.95Pt0.05,0.690
Pr1Pt4Ge9.5Sb2.5,0.690
Sr2Ru1O4,0.680
Ce1Pt3Si1,0.680
Sn0.76Ge0.19In0.05Te1,0.680
Ce2Pd1In8,0.680
Ba1Ni2As2,0.680
Ru0.58Rh0.42As1,0.680
Ba1Ni2Ge1P1,0.680
Pb0.38Sn0.57In0.05Te1,0.680
Au0.458Ge0.427Yb0.114,0.680
Y6Ta4Al43,0.680
Ce1Rh0.2Ir0.8In5,0.670
Th2Zn1,0.670
Lu1Pd2Si2,0.670
La1In0.75Sn2.25,0.670
Th0.632Tm0.368,0.670
Be13U0.993Th0.007,0.670
Lu1Pt1.2Pd0.8In1,0.670
Sr1Ti1O3,0.670
U0.991Th0.009Be13,0.660
Au0.23V0.77,0.660
Nb1Te2,0.660
Os1,0.660
Pd6.7Se1,0.660
Pd6Se1,0.660
Ir0.8Re0.2,0.660
Th0.999U0.001,0.660
Sr1Ni2As2,0.660
Ce1Ir1In4.97Sn0.03,0.660
Th0.999U0.127,0.658
S2Ta1,0.650
Ce2Rh1In8,0.650
Al2.06Cu1,0.650
Rh1Y3,0.650
Ir1Sn2,0.650
Al0.029Ti0.971,0.650
Rb1V6S8,0.650
Ce1Cu2Si2,0.650
O2,0.650
Ca1Pb3,0.650
Be13U0.99Th0.01,0.650
U1Co1Ge1,0.650
U0.97Mo0.03,0.650
Ce1Co1Ge3,0.650
Be13U1,0.650
Fe0.000Mo1.000,0.645
Ce1Cu2Si2,0.640
Ag0.438Hg0.562,0.640
Pd3Sn2,0.640
Ce1Cu2Ge2,0.640
Ce1Rh0.25Ir0.75In5,0.640
Ce1Co0.5Ir0.5In5,0.640
O1Ti1,0.640
Pd9Se2,0.640
Bi3La5,0.640
Bi1,0.640
Ce1Co1Ge3,0.640
U0.92Gd0.02Pd2Al3,0.640
La0.983Lu0.006Tb0.011,0.632
Ce1Cu2Si2,0.630
Ce1Pt3Si1,0.630