formula,Tc
Y0.4Pr0.6Ba2Cu4O8,32.000
Gd1Ba1.5Sr0.5Cu3O6.72,32.000
Er1Ba2Cu2.7Zn0.3O6.86,32.000
Er1Ba2Cu2.67Zn0.24Fe0.09O6.94,32.000
La1.86Ca0.14Cu1O4,32.000
La1.81Ca0.19Cu1O4,32.000
Eu1Ba1.2Pr0.3Sr0.5Cu3O6.89,32.000
Eu0.9Sr0.1Ba1.6Pr0.1Cu3O6.58,32.000
Eu1.6Ce0.4Sr2Ru1Cu2O10,32.000
La1.81Ho0.04Sr0.15Cu1O4,32.000
Pb0.5Sr1.75Nd0.25Eu1.5Ce0.5Cu2.5O9,32.000
Mg1B1.834C0.166,32.000
Mg0.988Fe0.012B2,32.000
Mg0.7Al0.15Li0.15B2,32.000
Mg0.815Al0.092B2,32.000
Mg1B1.8C0.2,32.000
Mg0.75Fe0.25B2,32.000
Eu0.5K0.5Fe2As2,32.000
Ba0.6K0.4Fe2As2,32.000
Ba0.5K0.5Fe2As2,32.000
Ba0.55K0.45Fe2As2,32.000
C1,32.000
La0.8Y0.2Fe1As1F0.1O0.9,32.000
Nd2Cu1O4,32.000
K0.68Fe1.79Se2,32.000
K0.8Fe2Se2,32.000
K0.82Fe1.63Se2,32.000
Tl0.47Rb0.34Fe1.63Se2,32.000
K0.65Fe1.41Se2,32.000
Rb0.88Fe1.81Se2,32.000
Tl0.4Rb0.4Fe1.6Se2,32.000
K0.86Fe1.66Se2,32.000
Rb2Fe4Se5,32.000
Rb0.8Fe1.68Se2,32.000
K0.74Fe1.67Se1.61S0.4,32.000
Tb1Fe1As1O0.8,32.000
Fe2As2Ca6Al1Ti3O11,32.000
K0.8Fe1.933Mn0.067Se2,32.000
K0.8Fe1.7Se2,32.000
K0.8Fe1.78Se2,32.000
Tl0.6Rb0.4Fe1.67Se2,32.000
Ba0.74K0.26Fe2As2,32.000
Li0.8Fe1.2Se0.59S0.41H1O1,32.000
Na0.65Fe1.93Se1.6S0.4,32.000
Rb0.8Fe1.7Se2,32.000
Eu0.7Na0.3Fe2As2,32.000
La1Fe1As1H0.58O0.58,32.000
Rb0.75Fe1.6Se2,32.000
Ca10Pt4.5Fe9.5As18,32.000
Ba1Fe2As0.64P1.36,32.000
Pb0.5Cu1Sr1La1O5.1,31.900
La1.85Sr0.15Cu0.995Zn0.005O4,31.900
Sr0.85La0.15Cu1O2,31.900
K0.58Fe1.56Se2,31.900
K0.8Fe1.951Mn0.049Se2,31.900
Sm1.39Ba1.61Cu3O7.07,31.800
Ba1K1Bi1O3,31.800
Ba0.65K0.35Bi1O3,31.800
La1.9Sr0.1Cu1O4,31.800
La1.75Nd0.1Sr0.15Cu1O4,31.800
La1.81Sr0.19Cu0.94Co0.06O4,31.800
La1.79Sr0.21Cu0.94Co0.06O4,31.800
Tl0.4Rb0.4Fe1.67Se2,31.800
Ca8.48Pr1.52Pt3Fe10As18,31.800
Ba0.72K0.28Fe2As2,31.800
La0.8Y0.2Fe0.999Mn0.001As1F0.11O0.89,31.800
Rb0.8Fe1.7Se2,31.750
Rb0.8Fe2Se2,31.750
La1.842Nd0.008Sr0.036Ba0.114Cu1O4,31.700
La1.75Nd0.1Sr0.15Cu1O4,31.700
La1.85Sr0.15Cu0.985Ni0.015O4,31.700
La1.842Nd0.008Sr0.036Ba0.114Cu1O3.98,31.700
La1.875Ba0.04Sr0.085Cu1O4,31.700
Ca0.719La0.281Fe2As2,31.700
La1.9Sr0.1Cu1O4,31.600
La1.85Sr0.15Cu1O4,31.600
Pb0.6Cu1Sr0.9La1.1O5.18,31.600
La1.798Nd0.052Ca0.15Cu1O4,31.600
La1.883Sr0.117Cu1O4,31.600
La1.798Nd0.052Ca0.15Cu1O3.96,31.600
Mg0.92Al0.08B2,31.600
Ca1Cs1Fe4As4,31.600
Ba0.6K0.4Bi1O3,31.500
Y1Ba2Cu3.84Zn0.16O8,31.500
Cu2W0.25Sr2Y1.3Ce0.7O8.81,31.500
Y1Ba2Cu3O6.45,31.500
Tl1Sr2Ca1Cu2O6.837,31.500
Ba0.61K0.39Bi1O3,31.500
Mg0.85Al0.15B2,31.500
Mg0.5Co0.5B2,31.500
Sr4V2Fe2As2O6,31.500
La1.77Sr0.23Cu0.94Ni0.06O4,31.500
Tl0.58Rb0.42Fe1.72Se2,31.500
Eu0.5K0.5Fe2As2,31.500
K0.8Fe1.97Mn0.03Se2,31.500
La1.85Sr0.15Cu1O4,31.400
La1.8Sr0.2Cu1O4,31.400
Nd0.8Pr0.2Ba2Cu3O7,31.400
Ba0.6K0.4Bi1O3,31.400
La0.65Pr1.2Sr0.15Cu1O4,31.400
La0.5Y0.5Fe1As1F0.1O0.9,31.400
K0.73Fe1.44Se1.68S0.32,31.400
Mg1B1.9C0.1,31.400
Tl0.4Rb0.4Fe1.7Se2,31.350
Tl0.4Rb0.4Fe2Se2,31.350
Pb2Cu2La1.1O6.24,31.300
Rb2Cs1C60,31.300
Nd1.8Cu1O4,31.300
Ce1Fe1As1H0.07O0.93,31.300
Sm1Fe0.97Mn0.03As1F0.12O0.88,31.300
Sm1Fe0.965Mn0.035As1F0.11O0.89,31.300
La1.83Sr0.17Cu0.99Ni0.01O4,31.200
Ba0.6K0.4Bi1O3,31.200
Ba0.595K0.405Bi1O3,31.200
Bi2Sr1.6La0.4Cu1O6.36,31.200
Mg0.99Fe0.01B2,31.200
La0.8Y0.2Fe0.998Mn0.002As1F0.11O0.89,31.200
La1.92Ba0.08Cu1O4,31.100
La1.812Nd0.038Sr0.026Ba0.124Cu1O4,31.100
Y1Ba2Cu3O6.5,31.100
La1.875Ba0.005Sr0.12Cu1O4,31.100
La1.83Sr0.17Cu0.99Ru0.01O4,31.100
K0.86Fe2Se1.82,31.100
Rb0.8Fe2Se2,31.050
Y1Ba2Cu2.6Fe0.4O7,31.000
La1.85Sr0.15Cu0.996Zn0.004O4,31.000
Cs1Rb2C60,31.000
La1.88Sr0.12Cu1O4,31.000
Y1Sr2Cu2.75Mo0.25O7.1,31.000
La1.9Sr0.1Cu1O4,31.000
Tl0.7Pb0.3Ca1Sr2Cu2O7,31.000
Bi2Sr2Ca0.5Y0.5Cu2I1O8,31.000
La1.8Sr0.2Cu1O4,31.000
La1.96Na0.4Cu1O4,31.000
Pb2Sr2Y1Cu3O8,31.000
Er1Ba2Cu2.76Co0.24O6.75,31.000
Sr2Cu1C0.86B0.14O5,31.000
Pb0.6Cu1Sr1.1La0.9O5.12,31.000
Ba0.59K0.41Bi1O3,31.000
Bi0.066Mo0.264Cu2.67Sr2Y1O7.32,31.000
Y1Ba2Cu3.928Zn0.072O8,31.000
Dy1Ba2Cu2.6Ni0.4O6.83,31.000
La1.865Sr0.135Cu1O4,31.000
La1.905Ba0.095Cu1O4,31.000
Ru0.6Sn0.4Sr2Gd1Cu2O8,31.000
La1.885Sr0.115Cu1O4,31.000
La1.875Sr0.125Cu1O4,31.000
C0.8N0.2Sr2Cu1O5.35,31.000
C0.8N0.2Sr2Cu1O5.45,31.000
C0.7N0.3Sr2Cu1O5.45,31.000
C0.7N0.3Sr2Cu1O5.55,31.000
La1.83Sr0.17Cu0.98Fe0.02O4,31.000
Ba0.63K0.37Bi1O3,31.000
Ca2Cu1Cl2.25O2,31.000
C60Rb3,31.000
Rb2Cs1C60,31.000
Mg0.7Li0.3B2,31.000
B2Mg1,31.000
Mg0.9Al0.1B2,31.000
Mg0.8Al0.1Li0.1B2,31.000
Mg0.8Li0.1Al0.1B2,31.000
Ru0.9Rh0.1Sr2Gd1Cu2O8,31.000
La1.69Sr0.31Cu0.94Co0.06O4,31.000
Fe2As2Ca4Sc2.01Ti0.99O7.5,31.000
K0.75Fe1.68Se2,31.000
K0.64Fe1.44Se2,31.000
K0.8Fe1.7Se2,31.000
K0.8Fe2Se2,31.000
K0.74Fe1.66Se2,31.000
K0.8Fe1.99Mn0.01Se2,31.000
K0.8Fe1.979Mn0.021Se2,31.000
Ba0.75K0.25Fe2As2,31.000
Eu1Fe2As2,31.000
Ba0.64Na0.36Fe2As2,31.000
Ca0.82La0.18Fe1As2,30.950
Ba1K1Bi1O3,30.900
Bi1.8Pb0.2Sr2Ca1Cu1.88Fe0.12O8,30.900
La1.92Ba0.08Cu1O4,30.900
Ba0.6K0.4Bi1O3,30.900
C60Rb3,30.900
Rb0.653Fe1.532Se2,30.900
La1.85Sr0.15Cu0.995Fe0.005O4,30.820
Ba0.6K0.4Bi1O3,30.800
Ba0.6K0.4O3,30.800
La1.81Sr0.15Ho0.04Cu1O4,30.800
C60Rb3,30.800
Mg0.81Al0.19B2,30.800
Mg1B1.826C0.174,30.800
Y0.55Pr0.45Ba2Cu3O6.65,30.700
La2Cu1O4.034,30.700
Ba0.613K0.387Bi1O3,30.700
Mg0.65Al0.175Li0.175B2,30.700
Nd1.7Cu1O4,30.700
Y1Ba2Cu2.8Zn0.2O6.85,30.690
La1.73Sr0.27Cu1O3.913,30.600
Gd0.7Pr0.3Ba2Cu3O6.95,30.600
Bi2Sr1.6La0.4Cu1O6.29,30.600
Sm0.9Pr0.1Ba2Cu3O6.65,30.600
Mg0.99Mn0.01B2,30.600
La1.85Sr0.15Cu0.993Co0.007O4,30.600
La1.8Sr0.2Cu1O4,30.600
Rb0.88Fe1.81Se2,30.600
Ba0.6K0.4O3,30.600
Mg1B1.81C0.19,30.570
Y1Ba2Cu3.8Zn0.2O8,30.500
Bi1.95Sr1.65La0.4Cu1O6.334,30.500
Bi1.95Sr1.65La0.4Cu1O6.2,30.500
La1.8Sr0.2Cu1O4,30.500
La1.85Sr0.15Cu1O4,30.500
La1.75Ca0.15Nd0.1Cu1O4,30.500
C60Rb3,30.500
Mg0.9Al0.1B2,30.500
La1.798Sr0.202Cu1O4,30.500
Ba1Fe2As1.34P0.66,30.500
Ba1Fe2As1.3P0.7,30.500
La1.77Sr0.23Cu0.94Fe0.06O4,30.500
La1.75Sr0.25Cu0.94Fe0.06O4,30.500
Pr2Ba4Cu7O14.06,30.500
La1Fe1As1H0.55,30.500
K0.8Fe2Se2,30.500
Ca8.38Ce1.62Pt3Fe10As18,30.500
Rb1Ca2Fe4As4F2,30.500
La1.8Sr0.2Cu1O3.95,30.400
La1.8Sr0.2Cu1O4,30.400
La1.85Sr0.15Cu0.996Al0.004O4,30.400
Ba0.635K0.365Bi1O3,30.400
La1.84Sr0.16Cu0.99Mn0.01O4,30.400
B2Mg1,30.400
La1Fe1As1F0.08O0.92,30.400
La1.71Sr0.29Cu0.94Ni0.06O4,30.400
Tl0.54K0.46Fe1.88Se2,30.400
K0.79Fe1.64Se2,30.400
Ca8.32Ce1.68Pt3Fe10As18,30.400
Nd2.1Cu1O4,30.350
Ba0.5K0.5Fe1.9Co0.1As2,30.310
La1.855Ba0.145Cu1O4,30.300
Bi2Sr2Ca0.7Pr0.3Cu2O8,30.300
Pb2Sr0.9La1.1Cu2O6.65,30.300
La1.9Sr0.1Cu1O4,30.300
La1.909Ce0.091Cu1O4,30.300
Ru0.8Sn0.2Sr2Eu1Cu2O8,30.300
Tl0.59Cs0.26Fe1.9Se2,30.300
La0.8Y0.2Fe1As1F0.11O0.89,30.300
Rb1Eu1Fe3.9Ni0.1As4,30.300
Nd0.8Pr0.2Ba2Cu3O6.85,30.200
La1.875Ba0.025Sr0.1Cu1O4,30.200
La1.8Sr0.2Cu0.998Zn0.003O4,30.200
La1.88Sr0.12Cu1O4,30.200
Nb1Sr2Eu1.5Ce0.5Cu2O10,30.200
Ca3Al2Fe2As2O5,30.200
Mg0.91Li0.09B1.84C0.16,30.150
Ba0.5K0.5Fe1.9Zn0.1As2,30.150
La1.85Sr0.15Cu0.99Zn0.01O4,30.100
La1.85Sr0.15Cu0.99Ni0.01O4,30.100
Bi1.95Sr1.65La0.4Cu1F0.2O6,30.100
La1.86Ba0.14Cu1O4,30.100
Y1Ba2Cu3.924Zn0.076O8,30.100
Mg1B1.81C0.19,30.100
Sr1Fe2As2,30.100
Ba1Fe2As1.52P0.48,30.100
Nd1Fe0.95Co0.05As1F0.11O0.89,30.100
La1Fe1As0.95Sb0.05F0.2O0.8,30.100
K0.8Fe1.76Se2,30.100
La1Fe1As1H0.24O0.76,30.100
La1.85Ba0.15Cu1O4,30.000
Sr0.2La1.8Cu0.95Fe0.05O4,30.000
Gd0.1La1.7Sr0.2Cu1O4,30.000
Y1Ba2.02Cu2.18Zn0.82O7,30.000
La1.75Sr0.25Cu1O4,30.000
La1.8Sr0.2Cu1O4,30.000
Y2Ba4Cu7O14,30.000
La1.85Sr0.15Cu0.996Co0.004O4,30.000
Tl0.4La1Sr1Cu1.6O5,30.000
La1Ba1Ca1Cu2.8Ni0.2O6.837,30.000
La1.875Sr0.125Cu1O4,30.000
Bi2Sr2Ca0.6Gd0.4Cu2O8,30.000
Ba0.63K0.37Bi1O3,30.000
Y1Sr2Cu2.7Mo0.3O7.1,30.000
Pb0.5Ca1Sr2Y0.5Cu2O6.93,30.000
La1.88Ba0.12Cu1O4,30.000
La1.9Ba0.1Cu1O4,30.000
La1.855Ba0.145Cu1O4,30.000
C60Rb3,30.000
La1.85Sr0.15Cu1O4,30.000
La1.91Sr0.09Cu1O4,30.000
Y0.85Ca0.15Ba2Cu2.55Co0.45O7.08,30.000
Eu1.6Sr1.8Ce0.6Cu3O8.6,30.000
La1.875Ba0.125Cu1O4,30.000
Bi1.95Sr1.75Nd0.3Cu1O4,30.000
Tm1.83Ca0.17Cu1O3.99,30.000
Bi2Sr8Cu4C3O21,30.000
Ba0.625K0.375Bi1O3,30.000
Y1Ba2Cu2.94Fe0.06H1O7,30.000
Y1Ba1.5La0.5Cu3O7.1,30.000
Sr2Cu1C0.82B0.12O5,30.000
Tm1.83Ca0.17Cu1O4,30.000
Ba0.9K0.1Pb1O3,30.000
Ba1.6Sr0.4Yb0.95Ca0.05Cu3O6.56,30.000
Bi2Sr4Cu2C1O11,30.000
Ba0.65K0.35Bi1O3,30.000
Ba0.55K0.45Bi1O3,30.000
Ba0.66K0.34Bi1O3,30.000
La1.85Sr0.12Ca0.016Ba0.014Cu1O4,30.000
La1.776Nd0.074Sr0.014Ba0.136Cu1O4,30.000
La2Cu1O4.032,30.000
Sm1La0.85Sr0.15Cu1O3.98,30.000
Tl1Ba0.3Sr0.7La1Cu1O5,30.000
Tl1Sr1La1Cu1O5.09,30.000
Tl1Ba1.2La0.8Cu1O5,30.000
Y1Ba2Cu2.91Zn0.09O6.77,30.000
Hg1Ba2Cu1O4.23,30.000
Yb0.5Pr0.5Ba1.7Sr0.3Cu3O6.93,30.000
Hg0.5Fe0.5Sr2Y0.8Ca0.2Cu2O6.72,30.000
La1.5Ba1Ca0.5Cu3O6.801,30.000
La1.82Sr0.18Cu0.995Zn0.005O4,30.000
La1.78Sr0.22Cu1O4,30.000
La1.84Sr0.16Cu0.99Co0.01O4,30.000
La2Cu1O4.08,30.000
Bi2Sr1.7La0.3Cu1O6,30.000
Y1Ba2Cu2.94Zn0.06O6.63,30.000
La1.85Sr0.15Cu0.995Zn0.005O4,30.000
La1.65Ca0.15Nd0.2Cu1O4,30.000
La1.8Ca0.2Cu1O4,30.000
La1.776Nd0.074Sr0.014Ba0.136Cu1O4.03,30.000
La1.85Sr0.06Ca0.05Ba0.04Cu1O3.99,30.000
Eu1Ba1.3Pr0.3Sr0.4Cu3O7,30.000
Ru1Sr2Gd1Cu2O8,30.000
Sr2Ho1Ru0.9Cu0.1O6,30.000
La1.84Sr0.16Cu0.99Fe0.01O4,30.000
Ru1Sr1.98La0.02Gd1Cu2O8,30.000
La1.7Gd1.3Ca1Ba2.2Sr0.8Cu6.44In0.56O16.6,30.000
Sr0.9La0.1Cu0.99Ni0.01O2,30.000
Eu1.2Ce0.8Sr2Ru1Cu2O10,30.000
Ru0.9Sr2Y1Cu2.1O7.9,30.000
Ru1Sr2Eu1Cu2O8,30.000
Ru0.95Sn0.05Sr2Gd1Cu2O8,30.000
Ca2Cu1Cl2.2O2,30.000
Ru0.5Nb0.5Sr2Gd1.4Ce0.6Cu2O9.64,30.000
Mg1B0.9C0.1,30.000
Ca1.85Cu1Cl2O2,30.000
La1.73Sr0.27Cu0.94Ti0.06O4,30.000
La1.69Sr0.31Cu0.92Ti0.08O4,30.000
La1.83Sr0.17Cu0.99Ru0.01O4,30.000
La1.81Sr0.19Cu0.98Ru0.02O4,30.000
Mg0.97Fe0.03B2,30.000
Mg0.95Mn0.05B2,30.000
Mg1B1.96F0.04,30.000
Mg1B1.75C0.25,30.000
Mg1B1.9C0.1,30.000
Mg0.88Sc0.12B2,30.000
Bi0.5La1Y0.5Sr1Cu2O6.04,30.000
La1.85Sr0.15Cu0.99Ni0.01O4,30.000
Ba0.72K0.28Fe2As2,30.000
Ba1Fe2As1.34P0.66,30.000
La1.85Sr0.15Cu0.991Ni0.009O4,30.000
Eu1Fe2As2,30.000
Cs0.86Fe1.66Se2,30.000
Eu0.48K0.52Fe2As2,30.000
Ca10Pt4.2Fe9.8As18,30.000
Ba1Fe2As1.3P0.7,30.000
Sr2V0.9Mg0.1Fe1As1O3,30.000
Ba1Fe2As1.44P0.56,30.000
Th1As1Fe1N1,30.000
Th1Fe1As1N1,30.000
Rb1Ca2Fe4As4F2,30.000
Fe1Sr2Y1Cu2O7.57,30.000
Fe1U6,3.990
Tm1Ni1.84Fe0.16B2C1,3.990
Na0.75Co0.998Ga0.003H2.6O3.3,3.980
Al0.25La0.75,3.980
C2Y1,3.980
Th1Ru3Si2,3.980
Th1Ru3.5Si2,3.980
Zr1P1.6Se0.4,3.980
Bi2Pd1Pt1,3.980
Rh0.25Zr0.75,3.970
Bi3.85Co0.15S3O4,3.970
Nb0.334Ta0.172Rh0.494,3.965
Bi2Ir1,3.960
S2Ta1,3.960
Sb0.06Sn0.94,3.960
Pr1Fe1P1O1,3.960
La0.984Lu0.014Tb0.003,3.959
Fe1U6,3.950
Cu0.08Ti2Se2,3.950
C1,3.950
Co0.03In0.97,3.950
Cr0.72Os0.28,3.950
C2Y1,3.950
Lu5Rh4Si10,3.950
Eu0.003La0.997,3.950
Bi3Ni1,3.950
La1F0.5Bi1Se2O0.5,3.950
Pd0.02Ta1S2,3.950
Na0.75Co0.995Ir0.005H2.6O3.3,3.940
La0.25Th0.75Sn3,3.940
Mo0.99Mn0.01Ga4,3.940
La0.98Nd0.02,3.940
Bi0.055Sn0.945,3.940
Bi3.99Cu0.01S3O4,3.940
Ce0.4Nd0.6F0.5Bi1S2O0.5,3.940
K1Fe2As2,3.940
Nb0.434Ta0.223Ir0.343,3.935
Au0.166La0.834,3.934
Ba1Pb0.65Bi0.35O3,3.930
Sc3.5Dy1.5Ir4Si10,3.930
Ir5Th1,3.930
Bi0.05Sn0.95,3.930
Bi1,3.930
Bi3.99Cu0.01S3O4,3.930
Ce0.4Nd0.6Bi1S2F0.5O0.5,3.930
Y1Lu4Rh6Sn18,3.930
La1.925Ce0.075Cu1O4,3.920
La2.4Se4Y0.6,3.920
La2.574Pr0.426Tl1,3.920
Al1Ce0.01La3,3.920
Ca1Fe0.8Ni0.2As1F1,3.920
Pb0.252Sn0.588In0.16Te1,3.920
Ba2Bi2Sb1,3.920
La1Ni1B1N1,3.920
Na0.29Co1H2.6O3.3,3.910
Lu5Rh4Si10,3.910
Ba8Si31Ge15,3.910
Lu5Ir4Si10,3.910
Sm1.88Ce0.12Cu1O4,3.900
Ce0.15Ru0.85,3.900
Lu5Ir4Si10,3.900
Cu0.07Ti1Se2,3.900
H0.1Ta1S2,3.900
Ru0.100Zr0.900,3.900
Cr0.008Cu1Rh1.992S4,3.900
Co0.1Zr0.9,3.900
Co1Zr3,3.900
Fe0.05Ni0.05Zr0.9,3.900
Fe0.05Rh0.04Ti0.91,3.900
Fe1U6,3.900
S1.2Se0.8Ta1,3.900
S0.8Se1.2Ta1,3.900
Te1,3.900
In0.94Pb0.06,3.900
La0.5Th0.5Ni2B2C1,3.900
Al0.24Nb0.76,3.900
La1Pt1Si1,3.900
C0.72W0.28Si1,3.900
Ge1Nb3,3.900
Eu0.75Sn0.25Mo6S7.2Se0.8,3.900
In1V6S8,3.900
Ba2Sn3Sb6,3.900
Sr1Sn3Sb4,3.900
Rb0.23W1O3,3.900
Lu4.5Y0.5Ir4Si10,3.900
La1Ru1.5Sn4.5,3.900
Y3Os4Ge13,3.900
Ba1Ga1Si1,3.900
Mg1C1Ni3,3.900
K0.18W1O3,3.900
La3Ru4Ge13,3.900
Li2Pd1.5Pt1.5B1,3.900
Cu0.7Ti1Se2,3.900
Ba1Fe1.952Ni0.048As2,3.900
Cu0.1Ti1Se2,3.900
Sn0.8In0.2Te0.85Se0.15,3.900
Pb1Ta1Se2,3.900
K1Fe2As2,3.900
Bi1,3.900
Ta1Ir2Ge2,3.900
La1F0.3Bi1S1Se1O0.7,3.900
La1F0.4Bi1S1Se1O0.6,3.900
La1F0.5Bi1S1Se1O0.5,3.900
Ge2Y1,3.900
Zr0.8Lu0.2B12,3.900
Zr1P1.54S0.46,3.900
Nb0.99Ni0.01B2,3.900
Bi1.75Sb0.25Te2Se1,3.900
Na0.044Pd1Bi2,3.900
Li1Nb1O2,3.900
Cr0.026V0.974,3.890
H0.63Nb0.87Pd0.17,3.890
Sb0.08Sn0.92,3.890
Zr1Ru1P1,3.890
Pd0.05Ta1S2,3.890
C2Y1,3.880
Lu5Ir4Si10,3.880
Fe1U6,3.880
W0.054Zr0.946,3.880
Nb0.85V0.15N0.92,3.880
Bi0.045Sn0.955,3.880
Ba0.96K0.04Ti2Sb2O1,3.880
Sn0.588Pb0.252In0.16Te1,3.880
Pd2Y0.9Er0.1Sn1,3.870
Sn0.56Pb0.24In0.2Te1,3.870
Bi0.019In0.981,3.860
Hg5Tl2,3.860
C1.95Y1,3.860
Fe1U6,3.860
Bi0.04Sn0.96,3.860
W0.474O0.106C0.42,3.850
C1Tc1,3.850
Pd1Te1,3.850
C2Y1,3.850
Y2Br1Cl1C2,3.850
Cu0.05V0.95,3.850
Tc0.2W0.8,3.850
Bi0.02Sn0.98,3.850
Bi3Ni1,3.850
Ba1Pd2As2,3.850
Ta1S1.6Se0.4,3.840
Ru0.100Zr0.900,3.840
Nb1S0.899,3.830
Ba1Pb0.55Hg0.2Bi0.25O3,3.830
Dy1Rh2.4Ir1.6B4,3.830
Nd1Fe1P1O1,3.830
Ce0.52Th0.48Ir3,3.830
Al0.27La0.73,3.820
Ir0.25W0.75,3.820
Ni0.011V0.989,3.820
Zr1Ru1P1,3.820
Pd0.15Ti0.85,3.820
Th1Ir0.75Si1.25,3.820
Pb0.696Sn0.464Ti2Se5.16,3.820
Hg1In1,3.810
O1Sn1,3.810
Os0.34W0.66,3.810
Hg0.5In0.5,3.810
Ca1Fe0.95Rh0.05As1F1,3.810
Sn1,3.808
Y2.5Dy2.5Os4Ge10,3.800
Pd2Y0.7Er0.3Sn1,3.800
K0.33Ta1S2,3.800
Cs0.33Ta1S2,3.800
Co0.496Th0.504,3.800
Bi1Sn1,3.800
C2Mo1Re1,3.800
C2Re1W1,3.800
Co0.02Cu0.98Rh2Si4,3.800
Dy0.01La0.99,3.800
Ge2Y1,3.800
Nb0.5Re0.5,3.800
Pb0.35Tl0.65,3.800
Sb0.4Sn0.6,3.800
Sn1V3,3.800
Dy1Ni2B2C1,3.800
Lu1Ni1.83Co0.34B2C1,3.800
Fe1U6,3.800
Lu5Ir4Si10,3.800
Cu1Co2S4,3.800
V3Ga0.1Sn0.9,3.800
Co0.15Ti0.85,3.800
Rh0.04Zr0.96,3.800
Re2Si1,3.800
C1,3.800
La1Rh2Si2,3.800
K1Fe2As2,3.800
Pd2Hf1Al1,3.800
Cu0.12Bi2Se3,3.800
Mg10Ir19B16,3.800
La1Ni1As1F0.1O0.9,3.800
Cu0.05Zr1Te3,3.800
Bi1Pd1,3.800
Lu2Ir2.91Rh0.09Si5,3.800
Li2Ir1Si3,3.800
Sn0.8In0.2Te0.8Se0.2,3.800
Ta5Ge1B2,3.800
Pb1Ta1Se2,3.800
Ba1Pt2As2,3.800
As1Sn1,3.800
Sn1As0.99Se0.01,3.800
La1F2Bi1S1Se1O0.8,3.800
Pd1Bi1.8Pb0.2,3.800
Nb1Se2,3.800
La0.698Au0.098Cu0.203,3.795
Ru0.073Zr0.927,3.790
Eu0.01La0.99,3.790
Cu0.03Ta1S2,3.790
Sm1Fe0.8Co0.2As1O1,3.790
Pb1Ta1Se2,3.790
La1F0.5Bi1S1Se1O0.5,3.790
Ru0.165Zr0.835,3.780
Co0.292Zr0.708,3.780
Nb3S4,3.780
La1Bi1S1Se1F0.5O0.5,3.780
Ni0.280Zr0.720,3.770
Bi3Sn1,3.770
Lu5Ir4Si10,3.770
In0.95Pb0.05,3.770
Sn1,3.770
Lu1.9Dy0.1Fe3Si5,3.770
La1F0.4Bi1S0.899Se1.101O0.6,3.770
La1F0.4Bi1S0.863Se1.137O0.6,3.770
Ru0.260Zr0.740,3.760
Nb0.48Rh0.52,3.760
Nb0.86Rh1.04,3.760
Sb0.01V0.99,3.760
Lu5Ir4Si10,3.760
Zr0.127Ti0.043Cu0.029Ni0.042Be0.758,3.760
La0.936Gd0.064Sn3,3.760
Ta0.1Zr0.9,3.760
Sb0.04Sn0.96,3.760
Zr1Ru1P1,3.760
Ir0.58Rh0.37Te2,3.760
La1Ni1As1H0.08O0.92,3.760
La1F0.4Bi1S0.906Se1.094O0.6,3.760
La1F0.4Bi1S0.872Se1.128O0.6,3.760
C2Y1,3.750
Cr0.05Rh0.04Ti0.91,3.750
Sb0.05Sn0.95,3.750
La3Te4,3.750
Cu0.15In0.85,3.750
Pb1Tl2,3.750
La3Ru4Sn13,3.750
Y3Lu2Rh6Sn18,3.750
K1Cr3As3,3.750
Sn1,3.745
Sn1,3.744
Sn0.930In0.036Sb0.034,3.743
Sn1,3.742
La6Zn1Sb15,3.740
Lu5Ir4Si9C1,3.740
Dy0.01La0.99,3.740
Pd0.14Ti0.86,3.740
Sr1Fe1.88Ni0.12As2,3.740
Pd2Y0.8Er0.2Sn1,3.730
Pd2Y0.75Tm0.25Sn1,3.730
Ru0.203Zr0.797,3.730
Nb0.625Pt0.375,3.730
Nb5Pt3,3.730
Ca1Al0.5Ga0.5Si1,3.730
Sn1,3.730
Hg0.9In0.1,3.730
Th1Ir0.6Os1.4,3.730
Fe1Se0.6S0.4,3.730
Pd0.06Ta1S2,3.730
Mg1C1Ni2.95Fe0.05,3.720
Rh0.181Zr0.819,3.720
Li2B1Pd1.5Pt1.5,3.720
Sn1,3.720
Bi1Sn1,3.720
Lu5Ir4Si10,3.720
La0.92Lu0.08,3.720
Au0.2La0.8,3.710
Nb1Se3,3.710
La0.99Nd0.01Pt1Si1,3.710
Sn1,3.710
Hf1P1.7S0.3,3.710
La1.85Sr0.15Cu0.979Al0.021O4,3.700
Na0.31Co1H2.6O3.3,3.700
Na0.3Pb1Ta2S5,3.700
Ba4Ca4Si46,3.700
Ta1S1.2Se0.8,3.700
Na0.35Co1H1.3O3.3,3.700
Ni0.569Th0.431,3.700
Ce0.013La0.987,3.700
Na0.4H3.6Pb1.14S5.14Ta2O1.8,3.700
Fe1U6,3.700
Bi3Mo1,3.700
Cd1Mo5S6,3.700
Cr1Ti3,3.700
Gd0.005La0.995,3.700
Li0.4Mo1S2,3.700
Pd0.05Rh0.04Ti0.91,3.700
S1Se1Ta1,3.700
Sn0.25Ta0.5V0.25,3.700
Bi2Pd3,3.700
Bi1Pd1,3.700
V1Ta2Sn1,3.700
Pt1Pd1,3.700
Bi0.4Pd0.6,3.700
C1Ga1Mo2,3.700
Sn1Ta2V1,3.700
Y0.91Th0.09C2,3.700
Ho1Ni1.98Co0.04B2C1,3.700
Mo5Ru1Se8,3.700
Y2Br0.75Cl1.25C2,3.700
Er0.8Tb0.2Ni2B2C1,3.700
Ge1La3,3.700
Mo1.75Ru1.25B2,3.700
La0.9Sr0.1Ni1As1O1,3.700
Mg10Ir19B16,3.700
K1Fe2As2,3.700
Li1Cu2P2,3.700
La1Ru2P2,3.700
Bi4S2.91Se0.09O4,3.700
Tl1Ni2Se2,3.700
In0.328Sb0.672,3.700
Li2Ir1Si3,3.700
Eu1Pt1Si3,3.700
Pr1Bi1S2F0.5O0.5,3.700
La1Bi1S1.2Se0.8F0.5O0.5,3.700
Sn0.8In0.2Te0.9Se0.1,3.700
Sn0.8In0.2Te0.75Se0.25,3.700
Pb1Ta1Se2,3.700
Ir1Sn4,3.700
La1Bi1S2F0.5O0.5,3.700
Ru0.55Rh0.45P1,3.700
Al0.152Sn0.848,3.690
Bi0.54Cd0.2Sn0.26,3.690
In0.955Pb0.045,3.690
In0.012Sn0.988,3.690
Sr1Fe2As1P1,3.690
Eu0.5La0.5F1Bi1S1Se1,3.690
Tl1Ni2Se2,3.690
La1F0.5Bi1S1.2Se0.8O0.5,3.690
In0.96Pb0.04,3.680
Ca1Tl0.75Pb2.25,3.680
La2.55Pr0.45Tl1,3.680
Zr0.9Mo0.1,3.680
La1Ni1As1H0.17O0.83,3.680
Sn0.7In0.3Te1,3.680
Rh0.219Zr0.781,3.670
Sr1Ga0.75Si1.25,3.670
In0.82Mg0.18,3.670
Fe0.101Ti0.899,3.670
Pd0.1Ti0.9,3.670
Ce0.4Nd0.6Bi1S2F0.7O0.3,3.670
Bi0.93Sb0.07,3.670
Sn0.992In0.004Sb0.004,3.669
Sn1,3.666
Rh0.209Zr0.791,3.660
Er0.4Y0.6Pd2Sn1,3.660
Ir0.8Y0.2,3.660
Cr0.026V0.974,3.660
Hf1Pd2Al1,3.660
La1.9Sr0.1Cu0.975Ni0.025O4,3.650
La1.9Sr0.1Cu0.97Ni0.03O4,3.650
Pd2Y0.5Tm0.5Sn1,3.650
Zr0.640Ti0.064Ni0.295,3.650
Ag0.035Cd0.01Sn0.955,3.650
Au1Th2,3.650
Cd0.18Sn0.72,3.650
Cd1Sn1,3.650
Nb3S4,3.650
Rh0.037Zr0.925,3.650
Sn1V3,3.650
La0.96Sr0.04Fe1As1O1,3.650
In0.062Sn0.938,3.644
B2Nb0.9,3.640
In0.961Pb0.039,3.640
Pb1Mo6S4Se5,3.640
W0.014Zr0.986,3.640
In0.25Tl0.75,3.640
La1Ni1As1F0.06O0.94,3.640
Lu0.07Zr0.93B12,3.640
Zr1Pd1S1,3.640
Ce0.01La0.99,3.630
La0.6Th0.4Ir3,3.630
In0.031Sn0.969,3.628
Pt1V3,3.620
H0.04Ta0.96,3.620
Cu1Co1.99Cr0.01S4,3.620
Ti0.63V0.27Al0.1,3.620
Cu0.064Ti1Se2,3.620
Pr0.915Ce0.085Pt4Ge12,3.620
In0.966Mg0.034,3.610
Ta2S2C2,3.610
Th1Ir1Os1,3.610
Eu0.5Ce0.5F1Bi1S1.2Se0.8,3.610
La0.3Th0.7Ru2,3.610
Au2Pb1,3.610
Na0.32Co1H2.6O3.3,3.600
Bi1K1,3.600
Bi3Ni1,3.600
Ca0.2Mo1S2,3.600
Sn3Yb1,3.600
Ce0.147Ru0.853,3.600
In1Sb1,3.600
Au0.5Ge0.5,3.600
B5Hf0.2Nb1.8,3.600
Cr0.011Ti0.967V0.022,3.600
K0.3O3Re1,3.600
Sr1,3.600
In0.95Pb0.05,3.600
Lu3Os4Ge13,3.600
Rb0.1W1O2.9F0.1,3.600
Rh0.027Zr0.973,3.600
Y1B2C2,3.600
Ta1V2,3.600
La1Sn2,3.600
La0.98Nd0.02,3.600
Mo2Ir1B2,3.600
B2.2Nb1,3.600
Pr1Fe1P1O1,3.600
Ca1Ir1Si3,3.600
K0.3Re1O3,3.600
Ni2P2Sr4Sc2O6,3.600
Y2Fe1C4,3.600
Ru0.55Rh0.45P1,3.600
Lu2Ir3Si4Ge1,3.600
K1Fe2As2,3.600
Pb0.352Sn0.528In0.12Te1,3.600
Zr1P1S1,3.600
La1Bi1S0.8Se1.2F0.5O0.5,3.600
La1Bi1Se1S1F0.5O0.5,3.600
Pb0.58Sn0.58Ti2Se5.16,3.600
Pb1Ta1Se2,3.600
Na0.3Mo1S2,3.600
Na0.4Mo1S2,3.600
Bi1Te1Cl1,3.600
Ga5V2,3.590
Lu0.37Dy0.63Ni2B2C1,3.590
Gd0.004La0.996,3.590
Zr0.8Ni0.2,3.590
La1Ni1As1F0.12O0.88,3.590
Sn0.6Pb0.2In0.2Te1,3.590
La1F0.5Bi1S0.8Se1.2O0.5,3.590
La1F0.5Bi1Se2O0.5,3.590
Bi2K1,3.580
La1Ru4Sb12,3.580
Y2Pd1Ge3,3.580
Ta0.24V0.76,3.580
Ta0.9V0.1,3.580
Sn0.528Pb0.352In0.12Te1,3.580
As1Sn1,3.580
Y4Lu1Rh6Sn18,3.580
Rh0.247Zr0.753,3.570
Ru0.119Zr0.881,3.570
Ag0.1Tl0.9,3.570
Bi2K1,3.570
La1Bi1Se2F0.5O0.5,3.570
Nb0.182Ta0.280Rh0.538,3.560
Zr0.540Ti0.182Ni0.278,3.560
Ru2Th1,3.560
Th1Ir0.4Os1.6,3.560
H0.69Nb0.8Pd0.2,3.560
La0.93Yb0.07,3.560
Sr1,3.550
Sb1,3.550
Nd1Bi1S2F0.3O0.7,3.550
Pd2Hf1Al1,3.550
As2Cd3,3.550
Tl1Ni2Se2,3.550
Li0.34Rb1Ca2Nb3O10,3.540
Li0.46Rb1Ca2Nb3O10,3.540
Na0.75Co0.99Ir0.01H2.6O3.3,3.540
Pb1Mo6Se8,3.540
Si0.108Zr0.892,3.540
Y0.7Gd0.3Rh4B4,3.540
Ta1Pt1Si1,3.540
Ba1Fe1.77Ni0.23As2,3.530
Eu0.5Ce0.5F1Bi1S1.4Se0.6,3.530
Mo0.5Pd0.5,3.520
Mo0.5Pb0.5,3.520
Y0.81Th0.19C2,3.520
Sr1Ga1.3Si0.7,3.520
Ti0.72V0.18Al0.1,3.520
Rb0.2W1O3,3.520
Nd1F0.3Bi1S2O0.7,3.520
Bi3.95Ag0.05S3O4,3.520
Nb0.4Bi2Se3,3.520
Li0.46Rb1Ca2Nb3O10,3.510
Na0.24Co1H2.6O3.3,3.510
In1.015Te1,3.510
Y1Ru3Si2,3.510
Y1Ru3.5Si2,3.510
Lu1.86Sc0.14Fe3Si5,3.510
Lu1.86Y0.14Fe3Si5,3.510
Ce1Bi1S2F0.9O0.34,3.510
Nd1Bi1S2F0.3O0.74,3.510
Ba2Bi1.75Sb1.25,3.510
Sn0.7In0.3Te1,3.510
Li0.1Rb1Ca2Nb3O10,3.510
Y0.5Pr0.5Ba2Cu3O6.66,3.500
La1.48Nd0.4Sr0.12Cu1O4,3.500
Li0.34Rb1Ca2Nb3O10,3.500
Sr0.2W1S2,3.500
Na0.3Sb1Ta2S5,3.500
Na0.4H3.6Sb1.16S5.16Ta2O1.8,3.500
As1Ge1,3.500
Cd0.1Tl0.9,3.500
Cr0.025Ti0.975,3.500
Cu0.3La0.7,3.500
Cu1Rh2Se4,3.500
Ir3Y1,3.500
Nb0.9Pd0.1,3.500
Ni0.05Rh0.04Ti0.91,3.500
Os0.05Rh0.04Ti0.91,3.500
Rh0.04Ru0.05Ti0.91,3.500
Rh0.08Ti0.92,3.500
Sn0.1Tl0.9,3.500
As2Sn3,3.500
In1Te1.002,3.500
Ru0.1Ti0.9,3.500
Na2.9Ba4.5Si46,3.500
Nd1Mo6S8,3.500
Sr1Ga0.74Si1.26,3.500
Tl0.61V6S8,3.500
Hf1Ir1Si1,3.500
Ca1Ga0.74Si1.26,3.500
Sr1Ga0.5Si1.5,3.500
La1Ru4Sb12,3.500
Ce1Os3B2,3.500
Ce1Ru1.97Co0.03,3.500