formula,Tc,type
Ba0.64Cu1.08Fe0.38O1.43Sr1.46Tm7.72,40.0,original
Ba1.18Ca0.43Cu1.39La1.11O1.25,40.0,original
Ba1.18Cu1.39La1.69O1.3,40.0,original
Ba0.75Ca0.3Cu1.39La1.83O1.3,40.0,original
Cu0.13La2.35O0.48,40.0,original
Ba1.18Cu1.39La0.68O1.27Pr0.13Sr0.58,40.0,original
Ce1.01Cu0.76Eu12.35O1.87Pb1.51Sr3.22Tl2.14,40.0,original
Ce3.41Cu0.76Eu9.58O2.15Ru2.65Sr3.22,40.0,original
Cu0.13La2.55O0.48,40.0,original
Cu0.12La2.55O0.48,40.0,original
Cu0.11La2.55O0.49,40.0,original
Ca0.18Cu0.76Ga1.1O1.31Sr3.22Tm5.38,40.0,original
B1.62Mg3.17,40.0,original
C10.41Cs31.6,40.0,original
Ca4.78Cu2.65F10.35O2.31Sr3.22,40.0,original
As0.65F0.67Fe1.02Sm6.8,40.0,original
As0.65Ce5.81F0.51Fe1.02,40.0,original
As0.65F3.02Fe1.02La1.11,40.0,original
Ba1.72Ca1.05Cu0.76F11.4O0.42,40.0,original
As0.65Fe1.02O0.17Sr3.22V0.73,40.0,original
As0.65F0.46Fe0.89Nd4.84Ru0.13,40.0,original
As1.47Ca0.8Fe2.3,40.0,original
As1.47Ca9.75Fe2.3Mg4.81O2.01Ti19.35,40.0,original
As1.47Ca0.93Fe2.3,40.0,original
As1.47F6.16Fe2.3O0.14Sm27.57Te1.68,40.0,original
Fe1.28H3.58Li5.77Se0.54,40.0,original
Fe2.3K5.32Se1.15,40.0,original
Ca0.43Fe2.3Se1.15,40.0,original
Eu6.81Fe2.3Se1.15,40.0,original
Fe1.02Se0.54,40.0,original
Fe1.18H3.58Li6.36Se0.54,40.0,original
P2.52S0.5Zr3.7,5.0,original
Ir5.11Th3.56,5.0,original
Cu0.13La2.15O0.48Sr0.19,5.0,original
Ir1.62Ti12.85,5.0,original
Co3.05Ga0.29Zr7.55,5.0,original
P1.78S0.95Y0.25Zr2.74,5.0,original
As0.65Fe0.96Pr0.75,5.0,original
Bi1.47F2.5Nd4.84S2.07,5.0,original
NbTa3.69,5.0,original
Ge0.73,5.0,original
As0.65Hf9.88Ru2.65,5.0,original
Ba0.64Ge1.57,5.0,original
Bi4.77S3.19,5.0,original
Mo7.34Pb3.13S2.07Se3.61,5.0,original
Ce4.85Ru5.45,5.0,original
V0.73,5.0,original
Zr3.31,5.0,original
H0.95Nb0.7Pd0.24,5.0,original
Nb0.23Re0.97,5.0,original
Sn0.38,5.0,original
Zr3.22,5.0,original
Zr3.43,5.0,original
Co3.27Ni0.43Zr7.55,5.0,original
Mg3.17Ni7.2,5.0,original
Ti2.34,5.0,original
B0.73Li14.58Pd4.8Pt1.32,5.0,original
Ba0.64,5.0,original
Ge0.36Nb4.2,5.0,original
Pd0.23Sb0.94,5.0,original
Re0.84W2.06,5.0,original
Re0.99W1.53,5.0,original
Ce5.81Ru5.45,5.0,original
Al0.98Mo1.72Nb1.73,5.0,original
B1.62Er5.71Ni4.79Tb3.44,5.0,original
Nb0.71V0.19,5.0,original
Pd3.98Sn0.78Y2.04,5.0,original
Ga1.1Si0.25Sr1.46,5.0,original
B1.62Ce0.41La3.84N15.88Ni4.79,5.0,original
As1.47Ba0.64Fe2.23,5.0,original
Fe1.02Li7.24P1.78,5.0,original
Pd0.27Sb0.92,5.0,original
Bi1.47F1.45Nd3.84S2.07Sm1.26,5.0,original
Bi3.16F2.5S2.07,5.0,original
Bi3.03Pb0.15Pd1.94,5.0,original
Hf9.88P2.8S0.33,5.0,original
Co3.27Zr7.55,5.0,original
Ce4.01Ru5.45Th1.01,5.0,original
Ir0.23Nb6.17Pt6.67,5.0,original
Ir0.38Nb0.74,5.0,original
Ir6.85Lu15.14Si3.27Th1.74,5.0,original
La0.68Th1.01,5.0,original
La1.11Ru2.65Si0.58,5.0,original
P1.78S0.95Y0.61Zr2.16,5.0,original
Cu0.13La2.26Nd0.84O0.49,5.0,original
H3.58Hf9.88V1.53,5.0,original
Bi6.33Ni0.12O0.48S3.19,5.0,original
N5.82Ti4.19,5.0,original
Nb1.16Se1.15,5.0,original
P1.78Rh1.7Ta5.24,5.0,original
Ir3.02Ru0.41Th3.56,5.0,original
As0.65Fe1.02Pr0.71,5.0,original
Ca0.74Rh7.17Sn11.37Sr3.66,5.0,original
Os3.03Si0.25Ta5.24,5.0,original
La1.1,5.0,original
Nb2.37S2.07,5.0,original
Mo3.59Se2.38Sn0.51,5.0,original
Ti3.87,5.0,original
P2.24S0.67Zr3.7,5.0,original
Bi1.46F1.45Nd4.84S2.07,5.0,original
Hf6.89Lu0.91P2.61S0.45,5.0,original
N5.82Ta5.24,5.0,original
B1.62Gd2.16Ni4.79Y1.44,5.0,original
B1.62Gd1.7Lu2.61Ru2.65,5.0,original
Fe3.58Lu6.47Sc0.24Si1.59,5.0,original
Bi1.3F1.45Nd4.84Pb0.21S2.07,5.0,original
Pd0.2Ti3.54,5.0,original
H1.61Nb0.75Pd0.26,5.0,original
P1.78Pd2.35Pt4.23Sr1.46,5.0,original
Co4.41H9.43Na1.18O0.28,5.0,original
Co4.41H9.43Na1.32O0.28,5.0,original
La3.77Se2.38,5.0,original
Hf7.89Lu0.58P2.8S0.33,5.0,original
Hf5.89P2.8S0.33Y0.61,5.0,original
Dy20.98Ge8.27Os12.44Y6.83,5.0,original
Ti2.5,5.0,original
Ti2.27,5.0,original
Nb0.44,5.0,original
As0.65Ga1.1,5.0,original
C2.17La1.11,5.0,original
Ta2.03Ti2.46,5.0,original
Cu0.13Rh3.52S4.3,5.0,original
Nb0.85Ru0.41,5.0,original
Hf9.88Re2.92,5.0,original
Hf4.89Nb0.47,5.0,original
In1.68Sb1.15,5.0,original
Ba6.04Na0.74Si15.36,5.0,original
B1.62Co1.23Lu3.29Ni4.42,5.0,original
B1.62Dy10.45Ni4.79,5.0,original
B1.62Er6.1Ni4.79Tb2.74,5.0,original
B0.73Re4.4,5.0,original
Nb5.41Re1.43,5.0,original
Zr3.62,5.0,original
Zr3.51,5.0,original
Ir1.97Lu16.84Rh4.98Si3.27,5.0,original
Pd0.2Zr3.12,5.0,original
Ge0.73Nb3.63,5.0,original
Ge10.78La3.98Pd6.02Ru2.65,5.0,original
Ce0.41La0.97P22.25Ru11.04,5.0,original
Ge9.94Pt9.58Th3.56,5.0,original
Fe1.02La1.11P1.78,5.0,original
B15.06Ir32.96Mg34.38,5.0,original
Nb3.63Pb3.58Se4.31,5.0,original
O0.2Rb0.84W5.25,5.0,original
Fe3.58Sc9.97Si1.59,5.0,original
In0.42Pb1.02Sn0.2Te2.37,5.0,original
B0.73Cr0.97Re4.4,5.0,original
As2.3Cr1.47Rb11.45,5.0,original
Hf9.88Te12.35,5.0,original
La1.11Ni0.27Ru7.72Si0.58,5.0,original
Bi6.33Co0.43O0.48S3.19,5.0,original
Al0.66Ca1.05Ga0.29Si0.25,5.0,original
Bi1.47F3.55Nd4.84S2.07,5.0,original
B10.52Lu0.15Zr3.41,5.0,original
Ce4.61Ru5.45,5.0,original
La3.12S4.3Y1.09,5.0,original
B10.52Lu0.12Zr3.45,5.0,original
Bi6.33Mn1.73O0.48S3.19,5.0,original
As2.3Cr1.47K5.32,5.0,original
Ta4.49,5.0,original
B1.62Lu2.95Ru2.65Tb1.35,5.0,original
As1.47Ba0.5Fe2.3Nd0.5,5.0,original
Co4.41H9.43Na1.06O0.28,5.0,original
Bi3.16Cs10.49,5.0,original
Ir1.71Nb1.04,5.0,original
Mo2.35Zr3.7,5.0,original
Re4.4Ta5.24,5.0,original
Ir1.88Nb0.91,5.0,original
Ga1.33Si0.18Sr1.46,5.0,original
In0.6Sn0.42Te2.37,5.0,original
Bi6.37Mn1.37O0.48S3.19,5.0,original
Hf6.89Lu0.91P2.8S0.33,5.0,original
B0.73Mo2.35,5.0,original
Ce5.81Ru5.42,5.0,original
Zr3.45,5.0,original
Hf5.89P2.61S0.45Y0.61,5.0,original
Ga0.99Si0.28Sr1.46,5.0,original
Ru5.45Th3.2,5.0,original
Pd0.26Ti3.41,5.0,original
Mg3.17Ni7.03Ru0.13,5.0,original
Pb9.62Y2.04,5.0,original
Ti2.3V0.24,5.0,original
Ca2.29Cs10.49Li4.45Nb3.63O2.15,5.0,original
Ag4.11Se1.15Sn0.78,5.0,original
V0.61,5.0,original
Pd0.31Ti3.32,5.0,original
Ca3.54Rh7.17Sn11.37,5.0,original
Cu0.12La2.19O0.48Sr0.14,5.0,original
Ce0.71Cu0.13Eu12.06Gd0.72O0.48,5.0,original
Co4.41H9.43Na0.94O0.28,5.0,original
Co4.41H5.04Na1.33,5.0,original
Ir6.85Lu16.84Si3.24,5.0,original
Na1.25S2.07Ta5.24,5.0,original
Ti2.15,5.0,original
Nb0.57,5.0,original
Ge1.57Ir3.36La3.98,5.0,original
B1.62Dy9.39Ni4.79Tb1.35,5.0,original
B10.52Y2.04,5.0,original
Ti3.63,5.0,original
Ge0.73Ir1.62,5.0,original
Os6.17Y2.04,5.0,original
Re1.06Ta1.22,5.0,original
Ti3.21V0.12,5.0,original
Nb1.1Se1.15,5.0,original
Mo0.47Re0.69,5.0,original
Re0.23Si0.25V2.17,5.0,original
B0.73Re1.43Y2.04,5.0,original
Br19.39C0.24Cl1.99Y4.44,5.0,original
O0.2Rb1.07W5.25,5.0,original
B14.08Ir32.96Mg39.31,5.0,original
Bi6.54O0.48S3.19,5.0,original
Ir1.5Te4.87,5.0,original
Bi1.47F1.45Nd4.84S2.07,5.0,original
As0.65F0.46Fe0.98La0.83Mn0.45Y0.13,5.0,original
Sn0.78Sr4.1,5.0,original
Rh3.52Zr15.26,5.0,original
Ag0.45In1.47,5.0,original
Ce5.63Gd0.16Ru5.45,5.0,original
B3.4Rh7.17Th3.56,5.0,original
B1.62Lu3.29Os9.3,5.0,original
Mo0.13P0.74Ru0.76,5.0,original
B3.4Ho10.97Rh4.62Ru3.77,5.0,original
Nb0.85W,5.0,original
Ir1.54Te4.87,5.0,original
Bi1.47Ce0.41F2.5Nd4.34S2.07,5.0,original
La0.4Sn2.54Th1.74,5.0,original
Ta4.39,5.0,original
Pb1.18Tl2.6,5.0,original
Bi6.41Mn1.02O0.48S3.19,5.0,original
H2.67Nb0.91Pd0.2,5.0,original
Bi1.47F1.45Nd1.84S2.07Sm4.03,5.0,original
Al0.12La0.86,5.0,original
In1.59,5.0,original
Ta4.33,5.0,original
Ga0.18V0.5,5.0,original
Bi1.47F3.55Nd3.84S2.07Sm1.26,5.0,original
Rh7.17Sn11.37Sr4.98,5.0,original
La1.09,5.0,original
Ta4.17,5.0,original
B3.4Dy10.45Ir3.36Rh3.52,5.0,original
Ti3.97,5.0,original
Gd0.5La1.02Sn2.54,5.0,original
B1.62Er7.65Ni4.59,5.0,original
Hf9.88P2.71S0.39,5.0,original
Si0.92Y2.04,5.0,original
Mo0.87Pt0.31,5.0,original
Ce1.01La0.83Ru8.24Si0.58,5.0,original
B0.73Ta4.71Zr0.23,5.0,original
Nb0.42Rh0.71Ta0.31,5.0,original
Co4.41H9.43Na2.92O0.28,5.0,original
La3.98Te9.86,5.0,original
As0.65Fe1.05Li7.09,5.0,original
Ce0.32Ge9.94Pr0.68Pt9.58,5.0,original
P1.96Se0.48Zr3.7,5.0,original
Ba1.72Cu1.39O1.2Pr0.36Y0.85,5.0,original
Cu0.11La2.26O0.48,5.0,original
Co4.41H9.43Na0.98O0.28,5.0,original
Ti2.79,5.0,original
Au1.21Pd0.24Te1.54,5.0,original
B0.73Re2.92,5.0,original
C0.41Er7.65Th3.56,5.0,original
Os6.17Sc4.95,5.0,original
Pb9.62Zr19.11,5.0,original
Re0.32W3.92,5.0,original
P1.68Zr3.7,5.0,original
Au7.67Nb2.99V0.35,5.0,original
Au2.24Nb3.63Rh1.15,5.0,original
Ta0.96Zr2.93,5.0,original
Ti1.79V0.36,5.0,original
B1.62Ni4.79Tb4.83Y1.21,5.0,original
Al1.4Ca1.05Si0.11,5.0,original
Cu0.45Rh2.61S4.3,5.0,original
V0.44Zr0.52,5.0,original
B0.73Mo1.97Ta1.49,5.0,original
As1.47Ba0.64Co0.86Fe1.87Zn0.21,5.0,original
Ge0.53Ir5.11Lu6.67Si1.34,5.0,original
Ir5.05Lu6.67Si1.59,5.0,original
Ba0.64Bi3.16Ti8.52,5.0,original
Au0.78Pd0.31Te1.59,5.0,original
As1.47Pt4.72Sr1.46,5.0,original
Co18.05In2.23La3.98Sn10.22,5.0,original
K5.32Mo1.1S2.07,5.0,original
B1.62Nb1.04,5.0,original
Pb3.13S0.95Se0.54,5.0,original
Ta4.44,5.0,original
Al0.98La3.98,5.0,original
La1.11Ru8.08Si0.58,5.0,original
Bi1.47F3.55Nd2.84S2.07Sm2.65,5.0,original
La0.53P22.25Rh7.17,5.0,original
Nb0.85,5.0,original
V0.72,5.0,original
Mo0.85Pt0.34,5.0,original
As0.65Fe0.86Ir0.1La1.11,5.0,original
B1.62Nb0.85,5.0,original
Ti1.95V0.34,5.0,original
Ce4.85Gd0.43Ru5.45,5.0,original
Nd0.84Ru5.45Th2.83,5.0,original
Ta4.71,5.0,original
V0.71,5.0,original
B1.62Dy9.39Ni4.79Tm0.71,5.0,original
Bi1.47F4.59La1.11S2.07,5.0,original
Mo0.6Si0.25V1.85,5.0,original
Ta4.81,5.0,original
N4.64V0.73,5.0,original
Ru1.16V0.36,5.0,original
Mo0.86Pt0.32,5.0,original
Pb2.9Se3.09Ti8.52,5.0,original
Hf6.89P2.61S0.45Y0.37,5.0,original
Re1.08V0.13,5.0,original
Dy0.55Fe3.58Lu6.47Si1.59,5.0,original
As0.65F0.93Fe1.02La1.11,5.0,original
Ba0.64Bi2.49Sb0.41Ti8.52,5.0,original
Bi1.47Cl8.18Te2.37,5.0,original
Hf6.89P2.8S0.33Y0.37,5.0,original
Ti2.06V0.33,5.0,original
B1.62Ho10.97Ni4.67,5.0,original
Al0.56Ca1.05Ga0.41Si0.25,5.0,original
Ce4.97Ru5.45Tb1.91,5.0,original
In1.5Pb0.21,5.0,original
Ta5.04,5.0,original
Cu0.13La2.47O0.48,5.0,original
Bi1.47F2.5La1.11S2.07,5.0,original
Ti2.08V0.33,5.0,original
Cu0.13La2.36O0.48,5.0,original
Ba0.21Bi1.35K2.05O0.2,5.0,original
Bi1.44K2.76O0.2,5.0,original
Co4.41H10.16Na1.14O0.31,5.0,original
Co4.41H6.51Na0.82O0.15,5.0,original
Mg2.84Ni7.28Zn0.17,5.0,original
Nb0.45,5.0,original
Rh10.81Sc19.99Sn16.67,5.0,original
Au1.47B4.29Mo2.1,5.0,original
Bi1.47Nb3.63,5.0,original
S1.06Zr3.7,5.0,original
Nb0.24Re0.96,5.0,original
Hf5.89Nb0.34,5.0,original
Ti2.09V0.33,5.0,original
Ir6.85Lu16.67Sc0.19Si3.27,5.0,original
Al1.29Ca1.05Si0.15,5.0,original
Zr3.66,5.0,original
B1.62Mg0.21Nb0.97,5.0,original
B1.62Mg0.71Nb0.78,5.0,original
Fe3.58Lu6.67Si1.59,5.0,original
Ho55.18Os12.44Si4.95,5.0,original
Co4.41H10.38Na1.25O0.31,5.0,original
Fe1.02Te1.88,5.0,original
Al0.98Ge2.41Y4.44,5.0,original
Ba0.37Na0.94Sb2.38Ti8.52,5.0,original
Au0.5Sb0.96,5.0,original
Bi1.47Ce5.81F3.55S2.07,5.0,original
Bi4.85S3.19,5.0,original
Bi1.2F2.5Nd4.84S2.07,5.0,original
Gd8.95Ni4.79Sm6.8,5.0,original
Al5.18Ba7.87Eu1.97Si13.68,5.0,original
As0.57Sn0.78,5.0,original
Cu0.13I20.53Li1.73Sr3.22,5.0,original
Ce3.41Ru5.45Th1.37,5.0,original
Fe0.13V1.29Zr3.7,5.0,original
Tc8V0.22,5.0,original
Ir0.37W3.76,5.0,original
Er0.14La1.07,5.0,original
Ir1.36Te4.87,5.0,original
Mo7.34S0.95Se4.22,5.0,original
Ta5.24,5.0,original
As0.65Co1.23Fe0.64Pr0.59,5.0,original
Ba1.72Bi4.85,5.0,original
Bi1.47Ce1.01F2.5Nd3.84S2.07,5.0,original
Ir5.11Th2.83,5.0,original
Hf5.89Lu1.25P2.61S0.45,5.0,original
Ta5.16,5.0,original
Ta5.03,5.0,original
Ta0.42V0.66,5.0,original
As0.65F0.41Fe1.02Sm6.8,5.0,original
Ta5.11,5.0,original
Sn0.78,5.0,original
La1.11Pb8.84Tl0.96,5.0,original
V0.48Zr0.58,5.0,original
Ta0.19V0.69,5.0,original
Bi1.47F3.55La1.11S2.07,5.0,original
Ba1.72Bi4.43Sb0.22,5.0,original
Bi1.47Ce5.81F3.02S2.07,5.0,original
Pd6.02Ta21.32Te39.8,5.0,original
In0.69Sn0.38Te2.37,5.0,original
C0.24La0.97Ni2.3Th0.28,5.0,original
Cu0.13S4.3V1.53,5.0,original
In1.63,5.0,original
La0.11Ru5.45Th3.2,5.0,original
Ta4.97,5.0,original
B14.08Ir32.96Mg32.74,5.0,original
B1.62Nb1.1,5.0,original
H1.28Nb0.75Pd0.26,5.0,original
Al0.14La0.83,5.0,original
Bi3.16F0.41S2.07,5.0,original
Ge9.53Pr0.75Pt9.58Sb0.53,5.0,original
Ce0.26In1.68La3.87,5.0,original
Au7.67Pb6.37,5.0,original
Nb1.1P1.78Rh1.7,5.0,original
Ba0.64Bi0.21Hg2.09O0.2Pb1.35,5.0,original
Hf4.89P2.61S0.45Y0.85,5.0,original
La1.11Ru5.45,5.0,original
N5.76Ti4.19,5.0,original
Ir2.32Os1.78Th3.56,5.0,original
B3.4Er6.1Gd1.7Rh7.17,5.0,original
Bi3.23La1.11Ni1.9,5.0,original
In1.68,5.0,original
Cu0.12La2.33O0.48,5.0,original
Cu0.13La2.37O0.48,5.0,original
Ba1.72Cu1.39O1.27Pr0.21Sm4.73,5.0,original
C10.41Sr6.74,5.0,original
Co6.68Cu0.32K0.96S4.3,5.0,original
Na0.34S2.07Ta5.24,5.0,original
Au7.67Pb9.62,5.0,original
B10.52Zr3.66,5.0,original
Bi0.22Tl3.23,5.0,original
Os2.22W1.31,5.0,original
Nb1.1Te1.75,5.0,original
B1.62Co0.59Ni4.59Tm7.72,5.0,original
La2.55Rh5.35Si1.59,5.0,original
Br16.61C0.24Cl4.05Y4.44,5.0,original
Al1.24Ca1.05Si0.16,5.0,original
Cs0.99F0.41O0.17W5.25,5.0,original
As1.47Te7.36,5.0,original
Al0.98Au15.42Sc4.95,5.0,original
Co4.41La3.98,5.0,original
Re1.43Si0.25Ta5.24,5.0,original
B5.18La0.25Y1.09,5.0,original
Ca1.05Ga1.1Si0.25,5.0,original
B0.73N5.82Nb2.37,5.0,original
Bi6.54Cs10.07Te14.85,5.0,original
Bi6.71Cs10.49Te14.6,5.0,original
In0.78Sn0.34Te2.37,5.0,original
As0.54Sn0.78,5.0,original
Rh10.81Sc25.01Sn15.78,5.0,original
Bi2.82Pb0.53Pd1.94,5.0,original
Bi2.91Pb0.37Pd1.94,5.0,original
Co3.05Zr7.55,5.0,original
Bi6.41Co0.21O0.48S3.19,5.0,original
Ti3.15V0.13,5.0,original
In0.15Sn0.6,5.0,original
B3.4Ir3.36Rh3.52Tm7.72,5.0,original
Er1.45Pd3.98Sn0.78Y1.56,5.0,original
C0.24Co3.96Th3.56,5.0,original
Pd3.98Sn0.78Y1.8Yb0.92,5.0,original
La1.04,5.0,original
V0.42Zr0.79,5.0,original
Pd1.94Te2.37,5.0,original
B0.73Li14.58Pd2.96Pt3.5,5.0,original
P2.89S0.28Zr3.7,5.0,original
Ir0.42Nb0.58Ta0.42,5.0,original
Nb0.55,5.0,original
B1.62Dy6.05Lu1.31Ni4.79,5.0,original
Rh1.7Se1.15,5.0,original
La1.11Rh1.7Si0.25,5.0,original
Bi3.16Te7.36,5.0,original
Bi1.47F3.02Nd4.84S2.07,5.0,original
V0.46Zr0.56,5.0,original
La3.72Pr0.11S4.3,5.0,original
La1.09Sn2.54,5.0,original
Fe3.58Lu6.34Sc0.44Si1.59,5.0,original
Ir1.19Rh0.24Te4.87,5.0,original
Mo7.34Pb3.78Se4.83,5.0,original
As0.65FeLa1.11,5.0,original
B1.62Er7.65Ni4.54,5.0,original
B1.62Lu1.93Ru2.65Tm3.05,5.0,original
Bi1.47Ce1.01F3.55Nd3.84S2.07,5.0,original
Bi6.52O0.48S3.19,5.0,original
Bi1.64S0.95Sb1.02Te4.87,5.0,original
Ce0.71Cu0.13Nd9.09O0.48,5.0,original
Ba1.72Cu1.33O1.19Y2.04,5.0,original
Ba1.72Cu1.33O1.28Y2.04Zn0.17,5.0,original
Ce0.71Cu0.13Eu12.56O0.48,5.0,original
Ba3.88Cu3.91O3.27Y4.44,5.0,original
Al0.16La0.8,5.0,original
Rh1.7Zr11.4,5.0,original
Te2.37,5.0,original
B4.29Nb2.11,5.0,original
H3.11Pd1.94,5.0,original
Ti3.76,5.0,original
Nb0.47V1.13Zr3.7,5.0,original
Ti3.8,5.0,original
Ta0.69Zr3.12,5.0,original
Nb0.47V0.3Zr3.7,5.0,original
Hf49.78Re35.59,5.0,original
Ta0.15,5.0,original
Ti2.73,5.0,original
B1.62Dy6.23Lu1.25Ni4.79,5.0,original
B1.62Dy9.92Ni4.79,5.0,original
Nd8.44S2.07Ta17.46,5.0,original
B1.62Dy8.87Ni4.79,5.0,original
Ba0.64Sn2.54,5.0,original
B3.4Er7.65Rh7.17,5.0,original
Mo7.34Pb3.13S5.42Se1.77,5.0,original
Sb0.13V0.53,5.0,original
Gd0.3In1.68La3.92,5.0,original
V0.62,5.0,original
Mo18.58Se11.58,5.0,original
Rh0.33Zr2.74,5.0,original
H2.27Nb0.91Pd0.2,5.0,original
Fe3.58Sc4.95Si1.59,5.0,original
B3.4Dy10.45Ir4.06Rh2.79,5.0,original
As1.47Ba0.64Fe2.14,5.0,original
La1.11Pt2.29Si0.25,5.0,original
As14.67Ca12.24Fe12.26Pt7.67,5.0,original
Sb2.38Te7.36,5.0,original
As0.61Sn0.78,5.0,original
As0.59Sn0.78,5.0,original
B1.62Nb1.06,5.0,original
Bi1.47F2.5Pr0.75S2.07,5.0,original
Si0.25Ta5.24,5.0,original
B1.97La0.11Nd3.34Pt4.96,5.0,original
Ti3.73,5.0,original
Gd0.62LaSn2.54,5.0,original
Nb2.37Pd1.94S4.86Se0.23,5.0,original
As0.65F0.67Fe0.38Ru1.25Sm6.8,5.0,original
Au7.67Tl8.96,5.0,original
Bi1.47Ni2.3,5.0,original
Bi3.16Rb5.68,5.0,original
Bi3.16Pb3.13,5.0,original
In1.54,5.0,original
Nb0.47V0.34,5.0,original
Ge0.73Mo3.59,5.0,original
B1.62Co8.96La0.97,5.0,original
Ba0.59Rb0.2Sb2.38Ti8.52,5.0,original
Ba0.59K0.14Sb2.38Ti8.52,5.0,original
Ba1.72Bi4.01Sb0.53,5.0,original
Ca1.05Si0.92,5.0,original
Ti3.5,5.0,original
Ga1.1Sb1.15,5.0,original
Ga0.87Si0.32Sr1.46,5.0,original
O0.2Rb0.95W5.25,5.0,original
Bi1.47F0.41Nd4.84S2.07,5.0,original
Ba0.54Na0.34Sb2.38Ti8.52,5.0,original
In0.24Pb1.18Sn0.25Te2.37,5.0,original
Au1.47La0.83,5.0,original
Nb0.53,5.0,original
Bi4.85In8.92,5.0,original
Ga0.18Mn1.96V0.47,5.0,original
Ce1.73Ir5.11Th2.4,5.0,original
N3.57Pt0.78,5.0,original
Nb0.59Rh0.6,5.0,original
Nb0.62Pt0.78,5.0,original
In0.16Pb1.25Sn0.27Te2.37,5.0,original
Bi1.47F2.5La0.25S2.07Sm4.03,5.0,original
Cu0.1La2.33O0.48,5.0,original
Cu0.13La2.05O0.48,5.0,original
Cu0.13La1.97O0.48,5.0,original
Ba1.72Cu1.33O1.21Y2.04,5.0,original
Mo1.1N5.82,5.0,original
Fe4.86La1.11P22.25,5.0,original
C0.24Ni2.3Th2.83,5.0,original
Al0.98Nb2.37Ni2.3,5.0,original
Bi1.47Sn0.78,5.0,original
Ga0.77V0.17,5.0,original
H0.33S2.07Ta5.24,5.0,original
Hg7.24Sn0.78,5.0,original
In1.53Pb0.17,5.0,original
K2.59Mo1.1O0.2,5.0,original
Nb1.01,5.0,original
Ru1.11V0.38,5.0,original
Re2.92Sc4.95,5.0,original
Al0.98Mo2.1Nb1.35,5.0,original
Bi1.47Pd3.98,5.0,original
Cd11.46,5.0,original
Hf7.49Nb0.15,5.0,original
B1.62Co0.23Er7.65Ni4.69,5.0,original
Ga0.8Si0.34Sr1.46,5.0,original
B1.62Gd1.97Ni4.79Y1.49,5.0,original
Co2.59Ni0.81Zr7.55,5.0,original
Mo7.34Se4.53Sn0.87,5.0,original
I30.82Mo7.34Se2.99,5.0,original
La3.98Ru2.65,5.0,original
Ir0.61Nb0.57,5.0,original
Ge0.73P1.78,5.0,original
S2.07Ta5.24,5.0,original
Ba0.64Ga1.1Si0.25,5.0,original
Bi6.54O0.48S3.15,5.0,original
Bi3.21Ce5.81Ni1.8,5.0,original
Bi3.13Ni1.78Pr0.75,5.0,original
Bi3.4Nd4.84Ni1.6,5.0,original
Bi3.3Ni1.75Sm6.8,5.0,original
Bi3.01Gd8.95Ni1.6,5.0,original
Bi2.99Ni1.65Tb13.87,5.0,original
Bi2.79Dy10.45Ni1.65,5.0,original
Bi3.16Ce5.81Ni1.8,5.0,original
Cu0.76Fe1.02Nd4.84O1.46Sr3.22,5.0,original
Bi6.49O0.48S3.19,5.0,original
Bi6.54I41.11,5.0,original
Se0.54Sn0.78,5.0,original
Sn0.29,5.0,original
In0.24Pb0.92Sn0.32Te2.37,5.0,original
Pb3.27Se3.09Ti8.52,5.0,original
Cr0.31Re0.45,5.0,original
Ti3.53,5.0,original
La0.98Sn2.54Tm0.65,5.0,original
Sn0.69,5.0,original
B3.4Er5.79Gd2.06Rh7.17,5.0,original
Se1.15Ti4.19,5.0,original
Hg7.24,5.0,original
Tc7.38V0.26,5.0,original
Nb0.59V0.26,5.0,original
In0.16Pb1.28Sn0.27Te2.37,5.0,original
Fe3.58Lu6.34Si1.59,5.0,original
Nb1.04,5.0,original
Br13.84C0.24Cl6.12Y4.44,5.0,original
Zr3.47,5.0,original
Sn0.71,5.0,original
Ti3.32V0.1,5.0,original
B1.62Lu1.59Os9.3Th1.74,5.0,original
Ta0.55Zr3.22,5.0,original
Bi0.97Sb0.28,5.0,original
B1.62Os9.3Th1.74U1.73,5.0,original
Pb3.13Pd3.98Y2.04,5.0,original
Be21.75W5.25,5.0,original
Pd3.98Sn0.78Tm0.33Y1.92,5.0,original
Pd3.98Sn0.78Tm0.71Y1.8,5.0,original
Zr3.5,5.0,original
Bi1.47Ru2.65,5.0,original
Mg2.68Ni7.28Zn0.27,5.0,original
As1.47Ba0.55Ce0.35Fe2.3,5.0,original
Ce1.61Ru5.45Th2.47,5.0,original
Hg2.34In1.08,5.0,original
H3.22Pd1.94,5.0,original
Nb0.34V0.42,5.0,original
Nb0.53V0.3,5.0,original
Ce0.41Ge9.94Pr0.67Pt9.58,5.0,original
P1.03Se0.79Zr3.7,5.0,original
Cu0.1La2.23O0.48,5.0,original
Ba1.72Cu1.39Nd4.59O1.2,5.0,original
Ba1.72Si15.36Sr10.27,5.0,original
S1.62Se0.17Ta5.24,5.0,original
Mo2.35,5.0,original
Ir6.85Lu16.84Si3.25,5.0,original
As0.65Sn0.78,5.0,original
Ga1.1Mo2.35,5.0,original
C0.14Th3.56,5.0,original
Cr0.17Re0.87,5.0,original
In0.33Sb0.84,5.0,original
Ir3.36Zr3.7,5.0,original
Mo1.1Na1.14S2.07,5.0,original
Pb3.13Tl8.96,5.0,original
Pt4.72Y2.04,5.0,original
Bi1.47In8.92,5.0,original
Be0.93W5.25,5.0,original
B1.62Dy10.45Ni4.78,5.0,original
Bi4.85Ni2.3,5.0,original
S8.78Tl4.41V4.7,5.0,original
Be12.82W5.25,5.0,original
La1.11Pb9.62,5.0,original
Zr2.93,5.0,original
Gd0.43In1.68La3.9,5.0,original
Sn0.72,5.0,original
La1.11P3.64Ru5.45,5.0,original
FeSe0.45,5.0,original
Rh3.52Sn0.78Y2.04,5.0,original
As1.47Ba0.64Fe2.25,5.0,original
As1.47Ba0.64Fe2.24,5.0,original
In0.35Sb0.82,5.0,original
Au4.95Pt0.71Te4.87,5.0,original
Bi3.16Ce5.81Ni1.95,5.0,original
Bi3.16Nd4.84Ni2.03,5.0,original
Bi3.16Ni1.85Y2.04,5.0,original
Ge0.73Rh1.7,5.0,original
Bi1.47La1.11,5.0,original
Bi1.47F2.5La1.11S0.95Se0.54,5.0,original