formula,Tc
Nb1Pb1S3,2.660
Pb2Rh1,2.660
Pb1Nb1S3,2.660
Lu1Os1B2,2.660
Y1Mo6S7,2.660
Sm1Rh4B4,2.660
Pd34Se11,2.660
Pb0.237Sn0.713In0.05Te1,2.660
Nd0.02La0.98Ni1C2,2.660
La1.48Nd0.4Sr0.12Cu1O4,2.650
Na0.34Co1H2.6O3.3,2.650
Ta0.75V0.25,2.650
Nb1Ru1Si1,2.650
Fe0.1Ni0.9Zr2,2.650
Bi1.09Ta2S5.09,2.650
La1Pd1Si3,2.650
La1Bi1S2F0.5O0.5,2.650
Th1Co1C2,2.650
Tl1Ni2Se1.6S0.4,2.650
Sr0.5Ce0.5F1Bi1S1.5Se0.5,2.650
Ni0.388Zr0.612,2.640
Au1Be1,2.640
Nb3Rh1,2.640
Sb0.02Sn0.98,2.640
Au1.6Pd0.4In1Y1,2.640
Sr1Pd1.98Ag0.02Ge2,2.640
La0.85Th0.15Bi1S2O1,2.640
Sb0.03V0.97,2.630
Pt1V3,2.630
La1Pt0.6Ni0.4Si1,2.630
C1,2.620
Y5Ir4Si10,2.620
Y2Pd0.8Pt0.2Ge3,2.620
Sr1Pd1.9Ag0.1Ge2,2.620
Sn0.713Pb0.237In0.05Te1,2.620
La0.9Th0.1Ru2,2.620
Cu0.6Zn0.4Ir2S4,2.610
La0.23Th0.77Pb3,2.610
Cu1Co1.99Rh0.01S4,2.610
Co0.03Zr0.97,2.610
Co0.02V0.98,2.610
Tm4Y1Rh6Sn18,2.610
Ir0.9Rh0.1Te2,2.610
Lu1Ni1B0.9C1,2.600
Lu1Ni1B0.8C1,2.600
Na0.32Co1H2.6O3.3,2.600
Be0.845Zr0.155,2.600
Pd0.241Zr0.759,2.600
Ni0.434Zr0.566,2.600
In1.15Te1,2.600
Ag1Te3,2.600
Al2Th3,2.600
Au0.3Pd0.033Te0.666,2.600
Ce0.02La0.98,2.600
Ce0.8Tb0.2Ru2,2.600
Ir1Os1Y1,2.600
La1Rh3,2.600
Mo0.25Ru0.75,2.600
Rh0.06Ti0.94,2.600
Y1Ir1Os1,2.600
Nb1Sn2,2.600
Na1.5Ba6Si46,2.600
Lu1Ni0.8V0.2B1C1,2.600
Lu1Ni1.8Co0.4B2C1,2.600
Er1Ni1.955Co0.09B2C1,2.600
La7Rh3,2.600
Cu0.6Zn0.4Ir2S4,2.600
Rb0.23W1O3,2.600
Mo0.94Fe0.06Ga4,2.600
Ge2Lu1,2.600
Lu5Ir4Ge10,2.600
Li2Mo15Se19,2.600
Y1Ir2Si2,2.600
Hf0.87Mo0.13,2.600
La3Ir4Sn13,2.600
Th3Ir4Sn13,2.600
Li2Pt3B1,2.600
Tm4Os4Si13,2.600
La1Pd1Si3,2.600
Cs1Fe2As2,2.600
Y3Pt4Ge6,2.600
Sr1Ga1Ge1,2.600
Rb1Fe2As2,2.600
Yb1Ga1.15Si0.85,2.600
Tl2Mo6Se6,2.600
Zr1Ru0.8Fe0.2P1,2.600
Sr1Si1.8Ni0.2,2.600
Sr1Pd2Ge2,2.600
La1Ni2P2,2.600
Sr1Pd1.86Pt0.14Ge2,2.600
Bi3.95Cu0.05S3O4,2.600
Au0.216Pd0.044Te0.740,2.600
Ca1Al1Si1,2.600
La1Bi1Se2F0.5O0.5,2.600
Ba1Pt0.3Si1.7,2.600
Sr0.065Bi2Se3,2.600
Cu0.1Ir1Te2,2.600
Na1Fe0.963Cu0.037As1,2.600
Bi0.8Pb0.2Pd1,2.600
Zr5Ge2.8Pt0.2,2.600
Sr0.5Ce0.5F1Bi1S1.7Se0.3,2.600
Er0.6Y0.4Pd2Sn1,2.590
Ba1Ni2Ge0.2P1.8,2.590
Ba1Ti2Sb1.4Bi0.6O1,2.590
Bi3.95Cu0.05S3O4,2.590
La0.983Lu0.009Tb0.007,2.582
Ni0.400Zr0.600,2.580
B3Ru7,2.580
La7Rh3,2.580
B0.3Ru0.7,2.580
Sr1Ga0.65Si1.35,2.580
La0.9Pr0.1Pb3,2.580
Th0.1Zr0.9,2.580
Sr1Pd1.94Co0.06Ge2,2.580
Sn0.768Pb0.192In0.04Te1,2.570
Nb0.05Bi2Se3,2.570
K1Tl1.5C4,2.560
Ce0.02La0.98,2.560
Pd1Te1.02,2.560
La0.94Nd0.06Pt1Si1,2.560
Li2Pt3B1,2.560
Ge4Rh1,2.560
Co0.5Mn0.5U6,2.550
Mn0.14Ti0.86,2.550
Nb3Rh0.9Pd0.1,2.550
Pr1Mo6S8,2.550
Ba1Ni2P2,2.550
Rb1Fe2As2,2.550
Ce1Au2Si2,2.550
Sr0.3Ba0.7Ni2P2,2.550
La1F0.5Bi0.98S2Sb0.02O0.5,2.550
Cd0.18Tl0.82,2.540
La1Pb0.75Sn2.25,2.540
Pd0.3Zr0.7,2.530
Pt1V3,2.530
Nb3Rh0.98Au0.02,2.530
Nb3Rh0.95Pt0.05,2.530
Au0.02Nb3Rh0.98,2.530
La0.99Tb0.01,2.530
Mo0.038Zr0.962,2.530
Th1Ir1Ru1,2.530
Th1Ir0.8Ru1.2,2.530
Cu0.03Ir1Te2,2.530
Ba1Cu0.5Si1.5,2.530
Sr0.15Ba0.85Ni2P2,2.530
Ba1Ni2P2,2.530
Nb1Os2,2.520
Nb3Rh0.95Au0.05,2.520
Nb3Rh0.98Pt0.02,2.520
Nb3Pt0.02Rh0.98,2.520
Ce0.8Tb0.2Ru2,2.520
Pd0.985Ni0.015H0.84,2.520
In0.4Tl0.6,2.520
Au0.07Zr0.93,2.520
Y2Pd0.7Pt0.3Ge3,2.520
Rb1Fe2As2,2.520
Sr1Pd1.8Ag0.2Ge2,2.520
Be22Mo1,2.510
Hf0.661W0.339,2.510
Sm1Rh4B4,2.510
Ba1Ni2P2,2.510
La1Ru2.917Fe0.083Si2,2.510
Li0.48Fe1.52S1H1O1,2.510
La1.85Sr0.15Cu0.973Co0.027O4,2.500
La1.85Sr0.15Cu1Ni0.04O4,2.500
La1.75Sr0.25Cu0.96Ni0.04O4,2.500
C1,2.500
Lu1Ni1B1C1,2.500
Lu1Ni1B0.95C0.95,2.500
Mg0.7Zn0.3C1Ni3,2.500
Pd2Yb1Pb1,2.500
Lu5Ir4Ge10,2.500
B5Nb1.8V0.2,2.500
Cr0.8Os0.2,2.500
Cu0.05Rh0.04Ti0.91,2.500
H0.81Pd1,2.500
Hf0.9Mo0.1,2.500
In1Sb1Sn1,2.500
La0.75Y0.25,2.500
Mg0.9Mo5.1S6,2.500
Nb0.9Pt0.1,2.500
Nb0.4Ru0.6,2.500
Se1Y1,2.500
Y1,2.500
La1Si2,2.500
Nb0.4Re0.6,2.500
Nb3Rh0.98Pd0.02,2.500
Co0.5Rh0.5Si2,2.500
Ru0.05Ti0.95,2.500
Lu0.1Dy0.9Ni2B2C1,2.500
Cu1Se2,2.500
Na2Rb1C60,2.500
Na2K1C60,2.500
Ba1Nb2Se5,2.500
Cd1.3Mo6Se7.5,2.500
Nb1Se3,2.500
Mg1B1.75C0.25,2.500
Y1Ir2Si2,2.500
S2Ta1,2.500
Co3Y4,2.500
Bi1La4Pb2,2.500
Yb3Co4Sn13,2.500
Y4Os6Sn19,2.500
Mg0.7Zn0.3C0.99Ni3,2.500
Sm1Fe1P1O1,2.500
Er0.72Gd0.28Rh4B4,2.500
Mg12Ir19B16,2.500
Ni0.02Ta1Se2,2.500
La3Ir4Sn13,2.500
Li1Rh1B1.5,2.500
Li1.2Rh1B1.5,2.500
Cu0.06Ti1Se2,2.500
Lu2Ir2.4Rh0.6Si5,2.500
La3Pd4Ge4,2.500
Pr1Ru4As12,2.500
La1Rh1P1,2.500
Ir0.95Pd0.05Te2,2.500
La0.95Y0.05F0.5Bi1S2O0.5,2.500
La1Bi1S2F0.5O0.5,2.500
La1Bi1S1.6Se0.4F0.5O0.5,2.500
Rb1Fe2As2,2.500
Mg1Pt1Si1,2.500
Ir1Te2,2.500
Ge4Rh1,2.500
Te2Ti1,2.500
Bi1.5Pb0.5Pd1,2.500
Sr0.1Bi2Se3,2.500
Pd1Bi1.72Pb0.28,2.500
La1F0.5Bi1S2O0.5,2.500
Pd0.259Zr0.741,2.490
Nb3Rh0.95Pd0.05,2.490
Nb3Pd0.02Rh0.98,2.490
Ir0.92Pt0.08Te2,2.490
Ba1Ti2Sb1.4Sn0.6O1,2.490
Sn0.336Pb0.504In0.16Te1,2.490
La1Bi1S2F0.5O0.5,2.490
La1Ru2.917Fe0.083Si2,2.490
Co0.455Zr0.545,2.480
Sn0.84In0.16Te1,2.480
Pb1Se1Eu1S1,2.480
Mo0.3Nb0.7,2.480
In0.45Tl0.55,2.480
Sr0.062Bi2Se3,2.480
La0.8Ti0.2Bi1S2O1,2.480
La1F0.5Bi1S2O0.5,2.480
La1F0.5Bi1S1.6Se0.4O0.5,2.480
Ir2Lu1,2.470
Nb0.6Pd0.4,2.470
Bi1Li1,2.470
Lu0.1Dy0.9Ni2B2C1,2.470
La0.4Ce0.6Ru3Si2,2.470
Sr0.065Bi2Se3,2.470
Th1Co1C2,2.470
Ir3Th1,2.470
Ir2.5Sc1,2.460
Y2Pd0.6Pt0.4Ge3,2.460
Ca1Al0.74Si1.26,2.460
Rb0.33W1O3,2.450
K1Tl1.5C8,2.450
Al2Gd0.002La0.998,2.450
Cu0.95Se2Zn0.05,2.450
Nb0.38Re0.62,2.450
La3Te4,2.450
Fe0.5Ni0.5Zr2,2.450
Pd1Te1.04,2.450
Ba1Ni2Ge0.6P1.4,2.450
Ce1Bi1S2F0.5O0.5,2.450
Sr1Pt1As1,2.450
Cu0.05Ir1Te1.7Se0.3,2.450
La1F0.6Bi1S2O0.4,2.450
Rh0.381Zr0.619,2.440
Ni0.411Zr0.589,2.440
Ni0.472Zr0.528,2.440
Nb3Rh0.9Ru0.1,2.440
Tm0.84Lu0.16Fe3Si5,2.440
Ni1Zr2,2.440
Cu1Se2,2.430
Ir0.02Nb3Rh0.98,2.430
Nb0.38Re0.62,2.430
Nb3Rh0.98Ir0.02,2.430
Co1U6,2.430
Pd2Yb1Sn1,2.420
Ru2Y1,2.420
Nb3Rh0.98Os0.02,2.420
Nb3Rh0.95Ru0.05,2.420
Nb3Rh0.98Ru0.02,2.420
Nb3Os0.02Rh0.98,2.420
Y2Pd0.5Pt0.5Ge3,2.420
Bi2Se3,2.420
Pd2Y0.95Gd0.05Sn1,2.410
Si2Th1,2.410
Si1Th1,2.410
Cu0.55Zn0.45Ir2S4,2.410
Co1U6,2.410
Cu0.1Ir1Te2,2.410
La3Co3.5Ru0.5Sn13,2.410
La0.995Ce0.005Ni1C2,2.410
Na0.26Co1H2.6O3.3,2.400
Lu1Ni1B1.1C0.9,2.400
Lu1Ni1B1C0.85,2.400
Yb0.2Mo1S2,2.400
Pd2Sc1Pb1,2.400
Pd2Lu1Pb1,2.400
As1,2.400
Cd1Mo5S6,2.400
Ge1.62Y1,2.400
Ir1.5O0.5Y1,2.400
Mn0.05Rh0.04Ti0.91,2.400
Nb0.05Rh0.04Ti0.91,2.400
Re0.15W0.85,2.400
Ru2Zr1,2.400
Tl1,2.400
Ir0.37Nb0.63,2.400
Y1Ir1.5Os0.5,2.400
Ag1In2,2.400
Ir0.5Os0.5,2.400
Si2Th1,2.400
Y0.7Ca0.3C2,2.400
Pr1Ru4As12,2.400
Ho1Ni1.972Co0.056B2C1,2.400
Y2Fe3Si5,2.400
La3Ni1,2.400
Cd1Mo6Se8,2.400
Sm1.2Mo6S8,2.400
La13Ga8Sb21,2.400
La1Rh1Al1,2.400
Ce1Ru1.95Co0.05,2.400
Mn1U6,2.400
La2.406Pr0.594Tl1,2.400
Rh0.01Ti0.99,2.400
Lu1B2C2,2.400
Mo6Te5I3,2.400
Bi1.5La4Pb1.5,2.400
La0.996Tb0.004Al2,2.400
Lu1Ru2Si2,2.400
La1Ni1As1O1,2.400
Pd2Hf1In1,2.400
Ba1Ga1Ge1,2.400
Ni2Zr0.85Nb0.15Ga1,2.400
Yb1Ga1.1Si0.9,2.400
Sr1Pt1As1,2.400
Zr0.361Co0.305Al0.333,2.400
In1N1,2.400
Bi6S5O8,2.400
La0.995Ce0.005Ni1C2,2.400
Ba1Ir2As2,2.400
Cu0.04Pd1Te2,2.400
Sr1Ta2S5,2.400
Cr0.75Ru0.25,2.400
Ce0.5Pr0.5Bi1S2O1,2.400
Bi1Sb1Te2Se1,2.400
Tl1,2.396
Tl1,2.392
Cu0.06Ti1Se2,2.390
Nb3Rh0.95Os0.05,2.390
Tl1,2.390
La0.998Gd0.002Al2,2.390
Ba1Fe1.952Ni0.048As2,2.390
Ir0.85Rh0.15Te2,2.390
Eu3Bi2S3Se1F4,2.390
Tl1,2.386
Tl1,2.380
Au0.2Sn0.8,2.380
Be0.9Ni0.1,2.380
Ir0.05Nb3Rh0.95,2.380
Pt1Sn4,2.380
Hf0.909W0.091,2.380
Nb3Rh0.95Ir0.05,2.380
Th1Si1.95Co0.05,2.380
Mo3Sb7,2.370
La1Rh1Bi1,2.360
Pd1Zr2,2.360
Nb0.4Re0.6,2.360
Sn0.798Ge0.042In0.16Te1,2.360
Al0.08V0.92,2.360
Ti0.595V0.255Al0.15,2.360
Th1Ir1.3Os0.7,2.360
Pd2Yb1Sn1,2.360
Bi1.1Nb1Se3.1,2.360
La0.8Hf0.2Bi1S2O1,2.360
Ru2Sc1,2.360
Co1U6,2.360
Mo3Sb7,2.360
Nd0.03La0.97Ni1C2,2.360
Ge3Y1,2.350
Rh0.4Ta0.6,2.350
Ta0.5V0.5,2.350
Rh2Ta3,2.350
La5Ru2,2.350
In1N1,2.350
Ba1Fe1.936Co0.044Cu0.02As2,2.350
Mo3Sb7,2.350
La0.8Ti0.2Bi1S2O1,2.350
Ce0.2Nd0.8F0.3Bi1S2O0.7,2.350
Cu0.15Ir1Te1.5Se0.5,2.350
Tl0.6Bi2Te3,2.350
Eu2Sr1Bi2S2.5Se1.5F4,2.350
Pd0.278Zr0.722,2.340
Hf0.96Rh0.04,2.340
Sr1Fe1.78Ni0.22As2,2.340
Er1Ir4B4,2.340
Pr1Fe1P1F0.1O0.9,2.340
Mn0.025Ti0.975,2.330
Pr1Ru4As12,2.330
La7Ir3,2.330
Ce0.2Nd0.8Bi1S2F0.3O0.7,2.330
Ag0.94Tl0.06,2.320
Ba1Hg1,2.320
Ir3La7,2.320
Mn1U6,2.320
Ir0.37Nb0.63,2.320
Sn0.756Ge0.084In0.16Te1,2.320
La1Rh3B2,2.320
La1Rh1Si3,2.320
Ni0.509Zr0.491,2.310
Li2B1Pd0.9Pt2.1,2.310
Mo3Sb7,2.310
Fe0.15Ni0.85Zr2,2.310
Nb3Se4,2.310
Ba1Ti2Sb1.6Sn0.4O1,2.310
La1Fe1As0.8P0.2O1,2.310
Ce1Co1In5,2.310
Ce1Co1In5,2.300
C3Na1,2.300
Ca1Cu0.33Si1.67,2.300
Pd2Y1Pb1,2.300
Nb2Se3,2.300
Tm4Rh6Sn19,2.300
Be2Nb3,2.300
Be5Pt1,2.300
Cd0.17Tl0.83,2.300
Co1U6,2.300
Ga3Lu1,2.300
Ir0.1Nb0.9,2.300
Ir0.265O0.085Zr0.65,2.300
La1Si2,2.300
N0.75V1,2.300
Pd5Se2,2.300
Re0.05Rh0.04Ti0.91,2.300
Rh0.04Ta0.05Ti0.91,2.300
Pd1Te1,2.300
Ag1In2,2.300
Nb3Rh0.9Os0.1,2.300
Ir0.265O0.035Ti0.65,2.300
Pd2.8Se1,2.300
Cu1.2Co1.8S4,2.300
Yb1Pd2Sn1,2.300
Hf1Rh1Si1,2.300
Pr1Th3.4Ru0.6B4,2.300
Lu3Ru4Ge13,2.300
Y2Cl2C2,2.300
Cu1.5Co1.5S4,2.300
Ta2Zr1,2.300
S2Ta1,2.300
Se3Ta1,2.300
Bi2La4Pb1,2.300
Lu3Rh4Ge13,2.300
Ta1Ge2,2.300
Y2Fe3Si5,2.300
Pr1Ru4As12,2.300
La1Ir1Si1,2.300
Cu0.06Ti1Se2,2.300
Au1Pd1In1Y1,2.300
Ni2Zr0.7Nb0.3Ga1,2.300
Dy0.85Tm0.15Ni2B2C1,2.300
Pb1.16Ti2Se5.16,2.300
Ca1Pt1Si3,2.300
Sr1Si1.9Ni0.1,2.300
Sb3Zr5,2.300
Au1Te2,2.300
La1Rh1Si3,2.300
Cu0.2Ir1Te1.5Se0.5,2.300
Ti0.85Ta0.15Se2,2.300
Mo3Sb7,2.300
Eu0.5Ce0.5F1Bi1S2,2.300
Tl1Ni2S2,2.300
Co1U6,2.290
As2Cd1Sn1,2.290
Sc1Pd2Sn1,2.290
La0.93Nd0.07Pt1Si1,2.290
Cr0.33Re0.67,2.290
La0.9Y0.1Ni1C2,2.290
Ce1Co1In5,2.290
Sn0.8Ag0.2Te1,2.290
Ir0.95Pt0.05Te2,2.290
Ti0.85Ta0.15Se2,2.290
Ti0.8Ta0.2Se2,2.290
Mo0.15V0.85,2.280
Nb3Rh0.98Co0.02,2.280
Co0.02Nb3Rh0.98,2.280
Ba8Si23Ge23,2.280
Rh0.88Ru0.12Se2,2.280
Ir0.92Pt0.08Te2,2.280
Sn0.665Pb0.285In0.05Te1,2.280
Ti0.8Ta0.2Se2,2.280
Ce1Co1In5,2.270
Th7Fe0.72Co2.28,2.270
Y2Pd1Si2.25C0.75,2.270
La0.96Gd0.04Ru2,2.270
Au1.8Pd0.2In1Y1,2.270
Sr1Fe1.78Ni0.22As2,2.270
Ce1Bi1S2F0.5O0.5,2.270
Cu0.737Sn0.263,2.260
Ce1Co1In5,2.260
Ag1Th2,2.260
Pb1Nb1S3,2.260
Nb0.85Pd0.15,2.260
Y2Pd0.3Pt0.7Ge3,2.260
Ce1Co1In4.999Hg0.001,2.254
Ce1Co1In4.998Hg0.002,2.252
Ce1Co1In5,2.250
Bi1Na1,2.250
Bi0.57Sn0.43,2.250
Bi2Y3,2.250
Ir0.34Nb0.66,2.250
Pd1.75Te2,2.250
Ho0.9La0.1Ni2B2C1,2.250
Ce1Rh1In5,2.250
La6Ni2Sn1,2.250
Th1Ir0.1Os1.9,2.250
Mo3Sb7,2.250
Ga9Ir2,2.250
Tm5Rh6Sn18,2.250
Ce1Bi1S2F0.33O0.67,2.250
Ce1Co0.9Ru0.1In5,2.250
Sn0.776Pb0.194In0.03Te1,2.250
Ir3La7,2.250
Ag2Pd3S1,2.250
Ce1Rh1In5,2.240
Pd0.287Zr0.713,2.240
Ge2La1,2.240
Ir3La7,2.240
Ru2Sc1,2.240
Y2Pd1Ge2Si1,2.240
Cu0.055Ti1Se2,2.240
Ce1Co1In5,2.240
Ce1Au2Si2,2.240
Re0.83Ru0.17,2.230
Sn0.714Ge0.126In0.16Te1,2.230
Ce1Rh1In5,2.230
Ce1Co1In5,2.230
Ir0.37Nb0.63,2.230
Ce1Co1In4.995Cd0.005,2.230
Nb2Pd1S3.75Se1.25,2.230
La3Pd4Ge4,2.230
Lu1Ru2,2.230
Ti0.9Ta0.1Se2,2.230
Ce1Co1In4.995Cd0.005,2.222
Y1Os1B2,2.220
La0.7Ti0.3Bi1S2O1,2.220
Te3Tl5,2.210
Mn1U6,2.210
Pd1.5Te2,2.210
Ce1Co1In4.996Sn0.004,2.210
Cu0.2Ir1Te1.8Se0.2,2.210
Ce1Rh1In5,2.210
Ce0.5Pr0.5Bi1S2O1,2.210
Am1,2.200
Na0.33Co1H2.6O3.3,2.200
Ce1Rh1In5,2.200
Bi2Rh1,2.200
Hf1V2H1.6,2.200
Au0.41Ge0.59,2.200
Ba0.14O3W1,2.200
Bi1Cu1,2.200
Bi1Re2,2.200
Co0.92Mn0.08U6,2.200
In1Te1,2.200
La0.55Lu0.45,2.200
Li0.3O3W1,2.200
Os0.15W0.85,2.200
Pd0.67Se0.33,2.200
Pd1.25Te2,2.200
Nb3Sb1,2.200
Pd2Se1,2.200
Re24Sc5,2.200
Bi2Ir1,2.200
Nb1Se2,2.200
Cu0.5Zn0.5Ir2S4,2.200
Cu1S1.8Se0.2,2.200
Er1.2Mo6S8,2.200
Ce1Co1In5,2.200
Y2Pd1Si2C1,2.200
Cu1.75Co1.25S4,2.200
Y0.92Gd0.08Ru2,2.200
Ir0.4Nb0.6,2.200
Yb0.2W1Se2,2.200
Lu1Mo6S8,2.200
Nb0.83Pd0.17,2.200
Ge2La1,2.200
La0.84Pr0.16,2.200
La3Ni1,2.200
Ge2Hf1,2.200
La3Rh4Pb13,2.200
Y4Ir6Sn19,2.200
Ga9Ir2,2.200
La1Rh1Si3,2.200
La1Ir1Si3,2.200
Mo3Sb7,2.200
La3Ni4P4O2,2.200
Ho1Rh1.6Ir2.4B4,2.200
Y1Pd2Al3,2.200
Pd17Se15,2.200
Ga3Lu1,2.200
Li0.9Mo6O17,2.200
Sb3Zr5,2.200
Ba1Ti2Sb1.8Sn0.2O1,2.200
Ba1Ti2Sb1.7Sn0.3O1,2.200
La3Co4Sn13,2.200
Sn0.75Ag0.25Te1,2.200
Cs2Cr3As3,2.200
Eu0.5Ce0.5Bi1S2F1,2.200
Eu0.5La0.5F1Bi1S2,2.200
La1F0.5Bi1S2O0.5,2.200
La1Bi1S2F0.5O0.5,2.200
Tl1Ni2Se1.4S0.6,2.200
Pd1Bi1.65Pb0.35,2.200
Sr0.5Ce0.5F1Bi1S2,2.200
Ag1Th2,2.190
Cu0.5Zn0.5Ir2S4,2.190
Tm5Rh6Sn18,2.190
Zr1Pd2In1,2.190
La1Bi1S1.8Se0.2F0.5O0.5,2.190
Ce1Co1In4.963Hg0.037,2.190
La1F0.5Bi0.9S2Sb0.06O0.5,2.190
Rh0.401Zr0.599,2.180
In1Te1,2.180
Ir2Y1,2.180
Ce1Co1In4.989Cd0.011,2.180
Ce1Co0.8Ru0.2In5,2.180
Hf1Rh1Si1,2.180
Pd0.12Ti1Se2,2.180
Th1Si1.9Co0.1,2.180
La1F0.5Bi1S1.8Se0.2O0.5,2.180
Li0.29Fe1.71S1H1O1,2.180
Li2Pt3B1,2.170
Ge1.9La1,2.170
Ge1.85La1,2.170
Ge1.83La1,2.170
Ge1.81La1,2.170
Ce1Co1In5,2.170
B2Os1,2.170
As1Cr1,2.170
La0.85Ce0.15Pt4Ge12,2.170
Eu3Bi2S3.4Se0.6F4,2.170
Na0.23W1O3,2.160
Ge0.23Mo0.77,2.160
Ir0.7Y0.3,2.160
W2Zr1,2.160
Eu0.011La0.989,2.160
La1Rh1Si3,2.160
Ce0.95Yb0.05Co1In5,2.160
Sn0.552Pb0.368In0.08Te1,2.160
Tl1Ni2Se1.2S0.8,2.160
Nd0.04La0.96Ni1C2,2.160
La3Pd4Si4,2.150
Cd1Hg1,2.150
Eu0.012La0.988,2.150
Rh3Th7,2.150
Cr0.4Re0.6,2.150
Dy1.2Mo6S8,2.150
Ho1.2Mo6S8,2.150
Pd2Sc1Sn1,2.150
Th1Rh0.1Si1.9,2.150
Ce1Co1In4.984Cd0.017,2.150
Ni2Nb1Al1,2.150
Ba1Fe1.856Cu0.088As2,2.150
Pd0.02Ir1Te2,2.150
Sn0.85Ag0.15Te1,2.150
Mo2.91Ru0.09Sb7,2.150
Bi1Na1,2.150
O3Tl0.03W1,2.140
Mg1C1Ni2.6Ru0.4,2.140
Y2Pt1Ge3,2.140
Sn0.84In0.16Te1,2.140
Ce1Co1In4.875Zn0.125,2.140
Ce1Co1In4.98Cd0.02,2.140
Mo1Te1.6Se0.4,2.140
Pb1Ta1Se2,2.140
Ce0.95Yb0.05Co1In5,2.140
Ir5La1,2.130
Ir1Zr3,2.130
Cu1Co1.95Ir0.05S4,2.130
Hf0.915Mo0.085,2.130
Ce1Co1In4.75Cd0.25,2.130
Fe0.2Ni0.8Zr2,2.130
Fe0.33Ni0.67Zr2,2.130
Ce1Co0.7Ru0.3In5,2.130
Sr0.58La0.42Bi1S2F1,2.130
Sn0.84In0.16Te1,2.130
Ce0.987Yb0.013Co1In5,2.130
Ba1Pt2As2,2.130
Ge3Rh5,2.120
Ge2Rh5,2.120
Ce1Rh1In5,2.120
Mo0.031Zr0.969,2.120
Ru0.42V0.58,2.120
Ge2Rh3,2.120
B2Os1,2.120
Ho1.1Ir4B3.6,2.120
La0.6Th0.4Bi1S2O1,2.120
Li2Pt3B0.95Al0.05,2.120
Sn0.84In0.16Te1,2.120
Pr0.5Eu0.5Pt4Ge12,2.120
Ce0.7Pr0.3Bi1S2O1,2.120
Cu0.260Zr0.725Mn0.015,2.110
Ag2In1,2.110
Pd1Te1.06,2.110
Pd1Te1.04,2.110
Ni0.03V0.97,2.110
Hf0.93Mo0.07,2.110
Er1Rh1.6Ir2.4B4,2.110
U0.85Mo0.15,2.110
Ba1Cu0.4Si1.6,2.110
Cs1Fe2As2,2.110
La0.983Lu0.008Tb0.009,2.108
La1.85Sr0.15Cu0.965Ni0.035O4,2.100
Y0.44Pr0.56Ba2Cu3O6.93,2.100
La1.85Sr0.15Cu0.97Zn0.03O4,2.100
Na0.32Co1H2.6O3.3,2.100
Co3Y4,2.100
Pd2Tm1Pb1,2.100
Be0.871Zr0.129,2.100
Pd0.306Zr0.694,2.100
Te3Zr1,2.100
Al1Mo6Pd1,2.100
C1Ir2W3,2.100
Fe0.5Ni0.5U6,2.100
In1Sb1,2.100
Mo3Sb4,2.100
Pt1Sb1,2.100
Cr0.6Ru0.4,2.100
Dy1Ni1.985Co0.03B2C1,2.100
Fe3Th7,2.100
Ce1Rh1In5,2.100
Y1.2Mo6S8,2.100
Er1Ir4B4,2.100
La1Rh1Sb1,2.100
Y1Rh1Sb1,2.100
K0.1W1O2.9F0.1,2.100
Cs0.1Li0.1W1O2.8F0.2,2.100
Al1Pd1Mo6,2.100
K2Mo15Se19,2.100
Er1.2Mo6S8,2.100
Se3Ta1,2.100
La7Ni3,2.100
Ca3Rh4Ge13,2.100
B2Os1,2.100
Mo3Sb7,2.100
Ba1Ir2P2,2.100
Pd2Zr0.9Nb0.1Al1,2.100
Ta1S2,2.100
Ce1Pt2In7,2.100
Bi4Te3,2.100
Ga3Sc1,2.100
Sr1Pt2Sb2,2.100
Sr1Pd1Ni1Ge2,2.100
Nb3Pd0.7Se7,2.100
La1Pd0.85Bi2,2.100
Fe0.98Ni0.02Se0.3Te0.7,2.100
La1Bi1S2F0.5O0.5,2.100
Bi2Rh3.5S2,2.100
U0.85Mo0.15,2.100
Sn0.8Ag0.2Te1,2.100
Bi3.93Ag0.07S3O4,2.100
Cs2Cr3As3,2.100
Sr0.5La0.5F1Bi1S2,2.100
Rb1Eu1Fe3.68Ni0.32As4,2.100
Ga5Re1,2.100
Ce0.98La0.02Co1In5,2.100
Rb1,2.100
B4.2W1,2.100
Se2Ta1.1,2.100
Cd3As2,2.100
O0.105Pd0.285Zr0.61,2.090
Pd0.285Zr0.61O0.105,2.090
Fe3Th7,2.090
Th1Ir3B2,2.090
Pt0.43W0.57,2.090
Ce0.9Yb0.1Co1In5,2.090
K0.38W1O3,2.090
Ir0.7Rh0.3Te2,2.090
Tl1Ni2Se0.2S1.8,2.090
Pr0.5Eu0.5Pt4Ge12,2.090
Er0.8Y0.2Pd2Sn1,2.080
Mo3Sb7,2.080
Re0.075Ta0.925,2.080
Th1Ir1.4Ru0.6,2.080
La0.85Y0.15Ni1C2,2.080
Ca1Ni1B1N1,2.080
Ir1Nb3,2.070
Nb6Sn5,2.070
Ir2Sc1,2.070
Tm1Rh1.3Sn4,2.070
Be13U1,2.060
Bi1Rh1,2.060
Mo0.22U0.78,2.060
Cr0.1V0.9,2.060
Sn0.855Pb0.095In0.05Te1,2.060
Sr0.058Bi2Se3,2.060
Cr0.774Ru0.226,2.060
La1.8Nd0.05Ca0.074Ba0.076Cu1O4,2.050
Pd2Sc1Sn1,2.050
Nb0.25Sb0.25Ti0.5,2.050
Te1Y1,2.050
Te1,2.050
Ti0.18V0.72Al0.1,2.050
Ir0.99Pt0.01Te2,2.050
Ce1Co1In4.96Cd0.04,2.050
Ta1Se1.4Te0.6,2.050
Mo3Sb6.975Te0.025,2.050
Ce1Rh0.9Ir0.1In5,2.040
In0.91Te1,2.040
Au0.27Tl0.73,2.040
C1Ru1,2.040
Ca1Tl3,2.040
C0.848Ta1,2.040
La0.92Nd0.08Pt1Si1,2.040
Zr1Ir1Si1,2.040
Pd0.7Se0.3,2.040
Fe0.36Ni0.64Zr2,2.040
La0.7Th0.3Bi1S2O1,2.040
La0.999Ce0.001Pt1Si1,2.030
N0.7V1,2.030
Tl1Ni2Se0.8S1.2,2.030
Ce0.985Yb0.015Co1In5,2.030
Hf2Rh1,2.020
Mo0.14U0.86,2.020
Bi1Rh1,2.020
Cr2Ru1,2.020
Fe0.3Ni0.7Zr2,2.020
Nb0.22U0.78,2.010
Nb0.67Pb1S3Ta0.33,2.010
W0.801Zr0.199,2.010
Ta0.03Zr0.97,2.010
La0.8Ce0.2Ru2,2.010
Ce0.98Nd0.02Co1In5,2.010
La1.9Sr0.1Cu0.98Zn0.02O4,2.000
Na0.45Co1H2.6O3.3,2.000
Na0.4Co1H2.6O3.3,2.000
Ce1Cu2Ge2,2.000
Cu0.06Ti2Se2,2.000
Ni0.560Zr0.440,2.000
In1Sb1,2.000
Bi3Ca1,2.000
Co0.94Rh0.06U6,2.000
Co0.5Rh0.5Si2,2.000
Cu1Se1Te1,2.000
Os1Re1Y1,2.000
Rh1Ta1,2.000
Rh0.04Ti0.96,2.000
Rh0.91Ti0.09,2.000
C1Ru1,2.000
Tl0.3W1O3,2.000
Nb0.5Re0.5,2.000
Y1Os1Re1,2.000
Re1Y1Os1,2.000
Mo0.04Ti0.96,2.000
O3Tl0.03W1,2.000
O3Sr0.08W1,2.000
Ti0.5Zr0.5,2.000
Lu0.3Dy0.7Ni2B2C1,2.000
Y0.6Tb0.4Ni2B2C1,2.000
Ni1Zr2,2.000
U1Pd2Al3,2.000
Nb3Se4,2.000
Fe1,2.000
Ho1Ir4B4,2.000
Lu1Ru4B4,2.000
Ce1Co1In5,2.000
C6Ir4O2,2.000
Er0.7Tb0.3Ni2B2C1,2.000
Er0.4Tb0.6Ni2B2C1,2.000
Lu0.32Dy0.68Ni2B2C1,2.000
Ce2Rh1In8,2.000
Cs1I1,2.000
V0.745Sb0.208Al0.025,2.000
Cr1Ru2,2.000
Rb0.1Li0.1W1O2.8F0.2,2.000
Au1Sc1,2.000
Pd0.24Ti0.76,2.000
Mo6S8,2.000
Ga6Y1,2.000
As1,2.000
Nb2As1C1,2.000
Ce1Ir0.3Co0.7In5,2.000
Lu4.95Yb0.05Ir4Si10,2.000
La1Rh1Sn1,2.000
C1,2.000
Ba1Pt1Si3,2.000
Ni2Zr0.5Nb0.5Ga1,2.000
Sc1Rh2Sn1,2.000
Cs0.3W1O3,2.000
Ca1Fe1.6Co0.4As2,2.000
Sr1Fe1.916Co0.084As2,2.000
Sr1Fe1.888Co0.112As2,2.000
Sr0.15Eu0.85Fe1.76Co0.24As2,2.000
Sr0.05Eu0.95Fe1.76Co0.24As2,2.000
Eu1Fe1.76Co0.24As2,2.000
Ce0.98La0.02Co1In5,2.000
Ce0.95Nd0.05Co1In5,2.000
La1Ru2P1.6B0.4,2.000
Sc1Pd2Sn1,2.000
Ta1Se3,2.000
Ba1Pd2As2,2.000
Ce1Fe0.98Co0.02As1H1,2.000
Ce1Fe0.96Co0.04As1H1,2.000
Pd0.2Ho1Te3,2.000
Th1Si1.5Co0.5,2.000
Th1Ni1Si1,2.000
La0.99Ce0.01Ni1C2,2.000
Sm0.02La0.98Ni1C2,2.000
Pd1S2,2.000
Ce0.1Pr0.9Bi1S2O1,2.000
Bi2Ca1,2.000
Pd1Bi1.6Pb0.4,2.000
Nb5Sn2Al1,2.000
Ba0.5K0.5Fe1.8Co0.2As2,19.950
Eu1Fe1.82Ir0.18As2,19.950
La1Nd0.9Ce0.1Cu1O3.974,19.900
Nb3Al0.92Ge0.08,19.900
Ga0.251Nb0.749,19.900
Nb3Al0.7Ge0.3,19.900
Nb3Al0.72Ge0.28,19.900
Ca1Fe1.898Co0.102As2,19.900
La1Fe0.9Zn0.1As1F0.1O0.9,19.900
La1Fe0.85Zn0.15As1F0.1O0.9,19.900
Na1Fe0.985Co0.015As1,19.900
Ba1Fe1.904Ni0.096As2,19.900
La1.85Sr0.15Cu0.991Fe0.009O4,19.850
La1.774Sr0.226Cu1O4,19.800
Bi1Pb1Sr1.6La0.4Cu1O6.065,19.800
La1Nd0.89Ce0.11Cu1O3.978,19.800
Pb2Cu2La1.1O6.19,19.800
Y0.9Ca0.1Ba2Cu3O6.03,19.800
La1.72Nd0.1Ba0.18Cu1O4,19.800
La1.8Sr0.2Cu0.983Zn0.017O4,19.800
Pr0.83La1Ce0.17Cu1O4,19.800
Nb3Al0.75Ge0.25,19.800
Nb3Al0.96Ge0.04,19.800
Nb3Al0.91Ge0.09,19.800
Nb3Al0.9B0.1,19.800
Nb3Al0.95Be0.05,19.800
Nb3Al0.9Be0.1,19.800
Nb0.75Al0.02Ge0.05,19.800
Nb0.75Al0.18Ge0.07,19.800
Nb0.75Al0.17Ge0.08,19.800
Nb2.96Al0.759Ge0.322,19.800
Nb3Al0.8Ge0.2,19.800
Ga1Nb3,19.800
Sr1Fe1.4Ru0.6As2,19.800
Sm1.85Ce0.15Cu1O3.98,19.700
Y1Ba2Cu3O6.48,19.700
Ca1.84Na0.16Cu1Cl2O2,19.700
C60K3,19.700
Sm1.85Ce0.15Cu1O4,19.700
Nb0.758Al0.174Ge0.069,19.700
Nb0.75Al0.2Ge0.05,19.700
Nb0.75Al0.21Ge0.04,19.700
Nb0.75Al0.16Ge0.09,19.700
Nb3Al0.9Ge0.1,19.700
Nb3Al0.6Ge0.4,19.700
Mg1B1.8C0.2,19.700
Ca9.35La0.65Pt3Fe10As18,19.700
La1Fe0.8Ru0.2As1F0.11O0.89,19.700
La1.75Sr0.25Cu1O3.921,19.600
Sm1La0.8Sr0.2Cu1O3.925,19.600
La1.92Sr0.08Cu1O4,19.600
Al0.95Be0.05Nb3,19.600
Nb3Al0.97Ge0.03,19.600
Nb3Al0.83Ge0.17,19.600
C60K3,19.600
Sc1,19.600
Ba1Fe1.3Ru0.7As2,19.600
Ba1Fe1.83Co0.17As2,19.600
La1Fe0.982Zn0.018As1F0.28O0.68,19.600
Ba0.5K0.5Bi1O3,19.550
La1.8Ca0.2Cu1O3.917,19.500
Nd1.85Ce0.15Cu1O3.98,19.500
Nd1.85Ce0.15Cu0.999Ni0.001O4,19.500
C60K3,19.500
Pr1.85Ce0.15Cu1O4,19.500
Ca0.1Ba1.65La1.25Cu3O7.01,19.500
Nd1.85Ce0.15Cu0.998Fe0.002O4,19.500
La1.8Sr0.2Cu0.995Zn0.005O4,19.500
Y1,19.500
Al1Ge1Nb3,19.500
Nb3Al0.9Ge0.1,19.500
La1.9Ca0.1Cu1O4,19.500
La1.762Sr0.238Cu1O4,19.500
Ba1Fe1.3Ru0.7As2,19.500
Ba1Fe1.9Co0.1As2,19.500
Ca9.39Pr0.61Pt3Fe10As18,19.500
Ca9.68Ho0.32Pt3Fe10As18,19.500
Ca0.85Gd0.15Fe1As2,19.500
Ce1Fe0.83Co0.17As1H1,19.500
La1Fe1As1H0.41O0.59,19.500
Nb0.75Al0.16Ga0.09,19.450
Mg1B1.4C0.6,19.450
Pr1.85Ce0.15Cu1O3.98,19.400
Ge1Nb3,19.400
C60K3,19.400
Nd1.85Ce0.15Cu1O4,19.400
Ca0.5Na0.5Fe2As2,19.400
Na1Fe0.979Co0.021As1,19.400
Ba0.3K0.7Fe2As2,19.400
C60K3,19.300
La1.76Sr0.24Cu1O4,19.300
Nd1.85Ce0.15Cu1O4.03,19.300
Ru0.9Rh0.1Sr2Gd1Cu2O8,19.300
Nb3Al0.98Ge0.02,19.300
Ce1Fe1As0.9P0.1F0.05O0.95,19.300
Ca0.906Nd0.094Fe2As2,19.300
Ba1Fe1.908Ni0.092As2,19.300
Na1Fe0.981Co0.019As1,19.300
Ca1K1Fe3.864Ni0.136As4,19.300
Nd1.85Ce0.15Cu1O4,19.200
Sm1.45Gd0.4Ce0.15Cu1O3.97,19.200
La2Cu0.98Zn0.02O4.099,19.200
La1.55Nd0.3Sr0.15Cu1O4,19.200
Al0.9As0.05Ga0.05Nb3,19.200
Al0.22Nb0.75Si0.3,19.200
Nb3Al0.95Ga0.05,19.200