formula,Tc,type
Ba1.72Ca0.24Cu1.39Gd4.87Hf1.4O1.33,76.0,original
Ba1.72Ca0.8Cu2.53Er3La1.97O2.55,76.0,original
Ba1.72Ca0.92Cu2.59Er3.39La1.9O2.61,76.0,original
Ba1.72Ca0.8Cu2.53Gd3.51La1.97O2.54,76.0,original
Ba1.46Cu2.02O1.59Sr0.12Y2.04,76.0,original
Ba1.4Ca0.8Cu2.65La2.12O2.65Yb3.91,76.0,original
Ba1.18Ca1.05Cu2.65La1.83O2.65Yb4.91,76.0,original
Ba1.02Ca0.3Cu1.39La1.47O1.35,76.0,original
Ba1.4Cu1.39O1.29Pr0.13Sr0.22Yb7.91,76.0,original
Ba1.72Cu1.37O1.31Y2.04,76.0,original
Ba1.72Ca2.29Cu1.39Hg7.24O2.15Tl4.41,76.0,original
Ba1.18Ca0.43Cu1.39La1.11O1.33,76.0,original
Ba1.18Ca0.3Cu1.39La1.26O1.35,76.0,original
Bi3.16Ca1.05Cu0.76O1.59Sr3.22,76.0,original
Ba1.72Cu1.36Er7.65O1.3,76.0,original
Ba1.72Cu1.39O1.21Y2.04,76.0,original
Ba1.72Ca1.05Cu2.62La1.83Nd2.34O2.52,76.0,original
Ba1.72Cu1.08Fe0.38Ho10.97O1.45,76.0,original
Ca0.43Cu0.76Hg2.83O1.56Pr0.83Sr3.22,76.0,original
Ba2.8Ca0.8Cd2.32Cu3.91La3.98O3.97,76.0,original
Ba1.72Ca2.29Cu1.39F10.35O1.03,76.0,original
Ba1.72Cu1.39O1.31Pr0.13Y1.56,76.0,original
Ba1.72Cu1.39O1.25Y2.04,76.0,original
Bi3.16Ca0.92Cu0.76O1.66Sr3.22,76.0,original
Ba1.08Cu2.02O1.59Sr0.75Y2.04,76.0,original
Bi2.66Ca1.05Cu0.76Pb0.86Sr3.22,76.0,original
Ba1.72Cu1.28O1.3Y2.04,76.0,original
Ba0.64Cu1.39O1.28Sr1.46Y2.04,76.0,original
Cu1.39O1.59Pb6.37Sr3.22Y2.04,76.0,original
Bi3.16Ca0.92Ce0.41Cu0.76O1.59Sr3.22,76.0,original
Ba1.72Cu1.39O1.24Y2.04,76.0,original
Ba1.18Ca0.18Cu1.39La1.4O1.33,76.0,original
Ba1.13Ca0.18Cu1.39La1.47O1.35,76.0,original
Ba1.72Cu1.39O1.28Y2.04,76.0,original
Ca0.55Cu0.76F5.12Nd1.84O0.75Sr3.22,76.0,original
Ba0.64Cu1.25O1.31Sr1.63Y1.42,76.0,original
Ba1.72Cu1.39O1.22Y1.86,76.0,original
Ba1.72Cu1.39Gd6.68O1.22,76.0,original
Ba1.72CoCu1.24O1.33Y1.92,76.0,original
Ba1.72Cu1.33O1.31Y2.04,75.0,original
Ba0.43Cu0.13O0.48Y2.52,75.0,original
Ba1.72Cu1.3Ni0.18O1.27Y2.04,75.0,original
Ba1.72Cu1.34Gd8.95O1.3,75.0,original
Ba1.72Cu2.02O1.59Y2.04,75.0,original
Bi1.47Ca0.68Cu0.76O1.59Pb3.13Sr3.22Y0.37,75.0,original
Ba1.72Cu2.02Dy10.45O1.59,75.0,original
Ba0.86Ca0.18Cu1.52O1.68Pb2.48Sr1.11Y1.32,75.0,original
Ba1.72Cu1.2Ga0.29O1.29Y2.04,75.0,original
Bi3.16Ca0.8Cu0.76I10.24O1.59Sr3.22Y0.13,75.0,original
Ca0.29Cu1.39O1.59Pb6.37Sr3.22Y1.11,75.0,original
Ba1.72Cu2.02O1.59Y1.8,75.0,original
Ba1.72Cu0.13Hg6.51O0.53,75.0,original
Bi3.16Ca1.05Cu0.76O1.66Sr3.22,75.0,original
Bi3.16Ca1.05Cu0.76O1.67Sr3.22,75.0,original
Ca0.43Cu1.39Ho5.45O1.59Pb6.37Sr3.22,75.0,original
Ba1.72Cu1.39O1.27Y1.68,75.0,original
Ca1.05Cu0.76O1.22Sr3.22Tl4.41,75.0,original
B0.73Ca2.29Cu1.39O1.87Sr3.22,75.0,original
Ba3.88Cu3.91Eu13.73O3.45,75.0,original
Ba1.29Ca0.3Cu1.39O1.13Sr0.4Yb5.91,75.0,original
Ba1.72Cu1.39H0.29O1.26Y2.04,75.0,original
Ba0.64Cu1.39Eu6.81O1.3Sr1.11,75.0,original
Ba0.64Ca0.18Cu1.39Eu6.81O1.3Sr0.93,75.0,original
Ba1.72Cu1.39O1.29Y1.73,75.0,original
Ba0.21Ca0.18Cu1.39La0.25Nd3.34O1.25,75.0,original
Ba0.75Ca0.92Cu1.39La1.11O1.32,75.0,original
Ba0.64Ca1.05Cu1.39La1.11O1.31,75.0,original
Ba1.72Cu2.02Eu5.08O1.59Y0.25,75.0,original
Bi0.29Ca7.14Cu9.01O7.45Pb0.21Sr5.86,75.0,original
Ba1.72Cu1.39O1.23Y1.8,75.0,original
Ba1.72Cu1.39Er7.65O1.2,75.0,original
Ba1.4Cu1.39Lu2.61O1.29Pr0.13Sr0.22,75.0,original
Ba1.72Cu1.39O1.25Y2.04,75.0,original
Ba1.72Cu0.13Hg7.24O0.49,75.0,original
Ba1.72Cu1.33O1.29Y2.04,75.0,original
Ba1.72Cu1.36O1.29Y2.04,75.0,original
Ba1.72Cu0.12Hg7.24O0.49,75.0,original
Bi1.14Ca0.68Cu0.76Nd1.34O1.3Pb0.21Sr3.22,75.0,original
Bi0.63Ca0.68Cu0.76Nd1.34O1.3Pb0.7S0.11Sr3.22,75.0,original
Ba1.72Cu1.08Dy10.45Fe0.38O1.46,75.0,original
Ca4.28Cu2.97O3.14Sr3.93V0.34,75.0,original
Ca5.65Cu3.6O3.68Sr3.75V0.34,75.0,original
Ba1.08Cu1.39Nd4.84O1.3Sr0.75,75.0,original
Cu0.13O0.31Sr3.22,75.0,original
Bi0.12Cu0.7La1.4O0.97Pb1.18Sr1.99,75.0,original
Bi3.16Ca1.05Cu0.76O1.59Sr3.22,75.0,original
Ba1.72Cu2.02O1.59Y1.92,75.0,original
Cu0.13O0.31Sr2.94,75.0,original
Ba1.72Cu2.02Lu2.61Nd0.84O1.59,75.0,original
Ca3.54Co1.5Ir6.22Sn11.37,75.0,original
Ba1.72Cu1.33O1.28Y2.04,75.0,original
Ba1.72Cu1.39O1.3Pr0.13Y1.56,75.0,original
Ba1.72Cu2.02Gd8.95O1.59,75.0,original
Ba1.72Cu1.34O1.28Y2.04Zn0.15,75.0,original
Ba1.72Cu1.97O1.59Y2.04,75.0,original
Ba1.72Ca0.18Cu0.76Hg10.19O1.54Tl2.6Y1.32,75.0,original
Bi13.3Ca8.51Cu5.17O9.11Sr8.51,75.0,original
Ba1.72Cu1.32Ni0.11O1.31Y2.04,75.0,original
Ba1.72Cu1.39Gd8.04O1.3,75.0,original
Bi13.3Ca7.27Cu5.17O8.85Sr10.27,75.0,original
Ba1.08Ca0.24Cu1.39La1.47O1.34,75.0,original
Ba1.7Cu2.02O1.59Y2.04,75.0,original
Ba1.72Cu1.34O1.28Ti0.25Y2.04,75.0,original
Ba1.72Cu1.28O1.31Y2.04,74.0,original
Bi3.16Ca0.61Cu0.76O1.68Sr3.22Y0.49,74.0,original
Ba1.72Cu2.02O1.59Y2.04,74.0,original
Ba1.72Cu2.02Ho10.97O1.59,74.0,original
Ba0.86Ca0.18Cu1.39O1.67Pb2.48Sr1.46Y1.32,74.0,original
Ba0.64Cu1.39Nd4.84O1.3Sr1.46,74.0,original
Bi0.34Cu0.76Hg4.82O1.31Sr3.22Y2.04,74.0,original
Ba1.72Cu1.39O1.28Y2.04,74.0,original
Ba1.72Cu1.33O1.27Y1.8,74.0,original
Ba1.72Cu0.13Hg5.77O0.59,74.0,original
Ba1.72Cu2.02Dy10.45O1.59,74.0,original
Ba1.99Ca1.67Cu3.28La2.91O3.25,74.0,original
Ba2.48Ca0.55Cu3.28La3.55O3.32,74.0,original
Ba1.72Cu2.01O1.59Y2.04,74.0,original
Ba2.91Ca0.8Cu3.91Gd3.51La3.55O3.97,74.0,original
Ba1.29Ca0.12Cu1.39O1.22Sr0.4Yb7.41,74.0,original
Ba2.91Ca0.8Cu3.91La8O3.98Y0.61,74.0,original
Ca2.04Cu1.39O2P0.85Sr3.22Y0.13,74.0,original
Ba1.18Ca0.36Cu1.39La1.19O1.26,74.0,original
Ba1.08Ca0.55Cu1.39La1.11O1.28,74.0,original
Ba0.86Ca0.8Cu1.39La1.11O1.3,74.0,original
Ba1.72Cu2.02Gd8.95O1.59,74.0,original
Ba1.72Cu2.02Eu6.81O1.59,74.0,original
Ca0.12Cu1.39Eu5.08O1.62Pb6.37Sr3.22,74.0,original
Ba1.72Cu2.02O1.58Pr0.13Y1.56,74.0,original
Bi3.16Ca1.05Cu0.76O1.65Sr3.22,74.0,original
Ca0.3Cu0.76O1.31Pr0.44Sr3.22Tl4.41,74.0,original
Ba1.72Cu0.13Hg7.24O0.51,74.0,original
Ba0.64Ca0.43Cu1.39La1.83O1.37,74.0,original
Ba0.37Cu1.39O1.3Sr1.9Y2.04,74.0,original
Bi3.16Ca1.05Cu0.73O1.59Sr3.22,74.0,original
Bi3.16Ca1.05Cu0.76O1.59Sr3.22,74.0,original
Ba1.72Cu1.39La1.11O1.3,74.0,original
Ba1.72Cu2.02O1.59Y1.8,74.0,original
Ba1.72Cu1.36O1.3Y2.04,74.0,original
Bi3.16Ca1.05Cu0.76O1.66Sr3.22,74.0,original
Ba0.64Cu1.36O1.3Sr1.46Y2.04,74.0,original
Ba1.72Cu1.39O1.28Y1.56,74.0,original
Ba0.64Ca0.92Cu1.39La1.11Nd0.35O1.28,74.0,original
Ba0.64Ca0.8Cu1.39La1.11Nd0.84O1.31,74.0,original
Ba0.64Ca0.68Cu1.39La1.11Nd1.34O1.32,74.0,original
Bi3.16Ca1.3Cu0.76O1.65Sr2.87,74.0,original
Ba1.72Cu1.39O1.23Y2.04,74.0,original
Ba1.72Cu1.39Er5.71Hf1.4O1.26,74.0,original
Ba1.72Cu1.39O1.24Y2.04,74.0,original
Bi13.3Ca4.78Cu5.17O8.92Sr13.79,74.0,original
Bi2.99Ca1.05Cu0.76O1.65Pb0.21Sr3.22,74.0,original
Ba1.72Cu1.39Lu2.27O1.31Pr0.21,74.0,original
Ba1.72Cu1.95O1.59Y2.04,74.0,original
Ba1.61Cu2.02Gd8.95O1.59,74.0,original
Ba1.72Cu1.39O1.3Pr0.21Yb6.91,74.0,original
Ba1.72Cu0.13Hg7.24O0.49,74.0,original
Ba1.46Cu1.39O1.32Y2.04,74.0,original
Ba1.72Cu2.02O1.59Pr0.13Y1.32,74.0,original
Ba1.72Cu1.39O1.3Pr0.13Y1.56,74.0,original
Bi2.49Ca2.29Cu1.39O2.22Pb1.18Sr3.22,74.0,original
Ca0.43Cu1.39Ho5.45O1.59Pb6.37Sr3.22,74.0,original
Ba1.72Cu1.39O1.26Y2.04,74.0,original
Ba1.72Cu1.39O1.31Pr0.13Y1.56,74.0,original
Ca0.68Cu0.76F5.12Nd1.34O0.75Sr3.22,74.0,original
Cu2.02Gd8.95O1.59Sr2.87,74.0,original
Al0.24Ba1.72Cu1.2O1.31Y2.04,73.0,original
Ba1.72Co0.32Cu1.33O1.26Y2.04,73.0,original
Ba1.72Cu1.2Ni0.56O1.28Y2.04,73.0,original
Bi0.97Ca1.05Cu0.64O1.03Pb0.86Sr1.46,73.0,original
Bi2.66Ca0.68Cu0.76O1.66Pb0.86Sr3.22Y0.37,73.0,original
Bi3.16Ca1.67Cu0.76O1.65Sr2.34,73.0,original
Ba1.72Cu1.3Ni0.18O1.28Y2.04,73.0,original
Ba1.72Cu1.39O1.31Sm6.8,73.0,original
Bi3.16Ca0.8Cu0.76O1.59Pr0.13Sr3.22,73.0,original
Bi3.16Ca0.8Cu0.76Gd1.7O1.59Sr3.22,73.0,original
Cu1.3O1.34Re0.17Sr3.22Y2.04,73.0,original
Bi3.16Ca1.05Cu0.76O1.65Sr3.22,73.0,original
Ca1.05Cu0.76O1.31Sr3.22Tl4.41,73.0,original
Ba1.72Cu0.13Hg6.51O0.48,73.0,original
Ba1.72Cu1.36O1.31Y2.04,73.0,original
Ba0.97Ca0.18Cu1.39La0.68O1.36Y1.32,73.0,original
Ba1.51Cu1.39Nd4.84O1.28,73.0,original
Ca2.29Cu1.39Ga1.1O1.87Sr3.22,73.0,original
Ba1.72Co0.14Cu1.36Er7.65O1.26,73.0,original
Ca1.92Cu1.39Ge0.32O1.95Sr3.22Y0.37,73.0,original
Ba1.72Cu0.13Hg7.24O0.49,73.0,original
Ba1.72Cu1.39O1.24Y2.04,73.0,original
Ca0.43Cu1.39F5.13O1.39Pb6.37Sr3.22Y0.85,73.0,original
Ba1.29Ca0.24Cu1.39O1.16Sr0.4Yb6.41,73.0,original
Ba1.72Cu1.39H0.29O1.25Y2.04,73.0,original
Ba1.18Ca0.55Cu1.39La0.97O1.24,73.0,original
Ba0.97Ca0.68Cu1.39La1.11O1.29,73.0,original
Ba1.72Ca0.3Cu1.39Gd3.97O1.18,73.0,original
Ba1.72Cu2O1.59Y2.04,73.0,original
Cu1.39Eu5.43O1.62Pb6.37Sr3.22,73.0,original
Ca0.18Cu1.39Eu4.73O1.62Pb6.37Sr3.22,73.0,original
Ba0.97Ca1.3Cu2.65La1.54O2.64Yb5.91,73.0,original
Ba1.18Cu1.39La0.4O1.35Y1.56,73.0,original
Ba1.61Cu1.39Eu6.81O1.24,73.0,original
Ba1.18Cu1.39La0.83O1.26Sr0.58,73.0,original
Bi3.33Ca1.05Cu0.74O1.59Sr2.87,73.0,original
Ca6.52Cu4.22O4.19Sr4.28V0.34,73.0,original
Ca1.05Cu1.36O1.31Pb1.51Sr3.22Tl2.14,73.0,original
Ba1.72Cu1.39O1.3Pr0.13Y1.09,73.0,original
Ba1.72Cu2.02O1.59Y2.04,73.0,original
Ba0.91Ca0.3Cu1.39La1.62O1.37,73.0,original
Ba1.18Cu1.39O1.27Sr0.58Y2.04,73.0,original
Ba1.72Cu1.38O1.27Y2.04,73.0,original
Ba1.72Co0.32Cu1.33Eu6.81O1.3,73.0,original
Ba1.72Cu1.39O1.31Pr0.13Y1.56,73.0,original
Bi13.3Ca7.27Cu5.17O8.8Sr10.27,73.0,original
Bi13.3Ca6.02Cu5.17O8.88Sr12.03,73.0,original
Ba1.45Cu1.39La1.11O1.3Sr0.14,73.0,original
Ba1.72Cu1.39H0.66O1.26Y2.04,73.0,original
Ba1.72Cu1.36O1.27Y1.92,73.0,original
Ba1.72Cu2.02O1.59Y1.8,73.0,original
Ca0.68Cu0.76Fe0.38Hg3.57O1.21Sr3.22Y0.37,73.0,original
Ba1.72Cu2.02O1.59Y1.68,73.0,original
Ba3.88Cu3.28La1.11O3.25Y2.04,73.0,original
Bi3.16Ca1.05Cu0.76O1.59Sr3.22,73.0,original
Bi3.16Ca1.05Cu0.76I10.24O1.59Sr3.22,73.0,original
Ba1.72Ca0.18Cu1.39Er4.16Hf1.4O1.33,73.0,original
Ba3.88Cu3.91O3.54Y4.44,73.0,original
Ba1.72Cu1.39O1.2Y1.56,73.0,original
Ba1.72Cl8.18Cu1.39O1.03Y2.04,72.0,original
Ba1.72Cu1.36O1.28Y2.04,72.0,original
Bi2.66Ca0.68Cu0.76O1.66Pb0.86Sr3.22Y0.37,72.0,original
Ba1.72Cu2.02Li0.13O1.59Y2.04,72.0,original
Ca0.43Cu1.08O1.31Pb1.51Sr3.22Tm3.83,72.0,original
Ba1.72Cu2.02O1.59Y2.04,72.0,original
Al0.98Ca2.29Cu1.39O2.07Sr3.22,72.0,original
Ba1.29Cu1.39La0.25O1.34Y1.8,72.0,original
Ba1.4Ca0.3Cu1.39Nd4.34O1.26,72.0,original
Ca0.43Cu1.39F2.82O1.49Pb6.37Sr3.22Y0.85,72.0,original
Ba1.72Cu1.39O1.23Y1.92,72.0,original
Ba0.21Cu1.39La0.25Nd3.84O1.23,72.0,original
Ca2.04Cu1.39O1.94P0.85Sr3.22Y0.13,72.0,original
Ca2.04Cu1.39O1.97P0.85Sr3.22Y0.13,72.0,original
Ba1.18Ca0.24Cu1.39La2.05O1.25,72.0,original
Ba1.18Ca0.3Cu1.39La1.26O1.26,72.0,original
Ba1.72Cu0.13Hg7.24O0.48,72.0,original
Ba1.18Ca0.43Cu1.39La1.11O1.34,72.0,original
Ca7.07Cu9.47O7.45Sr6.78,72.0,original
Ba1.72Cu1.28Er7.65O1.3,72.0,original
Ba1.72Cu0.13Hg7.24O0.49,72.0,original
Ba2.59Ca1.05Cu3.82Gd6.23In0.13La2.98O3.97,72.0,original
Ba1.72Cu1.08Fe0.38Gd8.95O1.44,72.0,original
Ba1.72Cu1.08Er7.65Fe0.38O1.44,72.0,original
Ba1.72Cu1.08Fe0.38O1.44Yb9.91,72.0,original
Ca3.54Cu2.02F10.35O1.81Sr3.22,72.0,original
Cu0.13Lu6O0.48,72.0,original
Ba1.72Ca0.3Cu1.39Gd3.97Hf1.4O1.33,72.0,original
Bi3.16Ca1.05Cu0.76O1.59Sr3.22,72.0,original
Bi3.16Ca1.17Cu0.76O1.64Sr3.04,72.0,original
Ba1.72Cu2.02Gd8.95O1.59,72.0,original
Ba1.72Cu1.24Ga0.23O1.31Y2.04,72.0,original
Ba1.72Cu1.39O1.26Pr0.13Y1.56,72.0,original
Bi3.16Ca1.05Cu0.76I2.52O1.65Sr3.22,72.0,original
Ba1.72Cu1.39O1.31Y1.56,72.0,original
Ba1.72Cu1.24Ni0.41O1.31Y2.04,72.0,original
Bi3.16Ca1.05Cu0.75O1.59Sr3.22,72.0,original
Ba2.8Ca0.68Cd3.5Cu3.91La3.98O3.95,72.0,original
Ba1.72Cu1.92Ga0.13O1.59Y2.04,72.0,original
Ba1.72Cu1.39O1.23Y2.04,72.0,original
Ba1.72Cu1.39O1.25Y2.04,72.0,original
Bi3.16Ca1.05Cu0.76O1.66Sr3.22,72.0,original
Ba1.72Cu2.01O1.59Y2.04,72.0,original
Ba1.73Cu1.33O1.23Y2.07,71.0,original
Ba1.72Cu1.14Ni0.81O1.31Y2.04,71.0,original
Bi2.66Ca0.68Cu0.76O1.66Pb0.86Sr3.22Y0.37,71.0,original
Ba1.72Cu2.02Dy10.45O1.59,71.0,original
Cu1.39Eu6.81O1.59Pb6.37Sr3.22,71.0,original
Cu1.27O1.34Sr3.22Y2.04,71.0,original
Ba1.72Co0.55Cu1.3O1.29Y2.04,71.0,original
Cu0.76O2.15Pb1.51Sr6.74Tl2.14,71.0,original
Ca0.28Cu1.39O1.59Pb3.13Sr3.22Y1.13,71.0,original
Ba0.64Cu1.39Nd4.34O1.27Sr1.46,71.0,original
Ba1.72Cu1.39O1.23Y1.8,71.0,original
Ba1.18Cu1.39Nd4.84O1.29Sr0.58,71.0,original
Ba1.72Cu0.13Hg7.24O0.51,71.0,original
Ba0.64Ca1.05Cu1.39La0.76O1.31Sm1.61,71.0,original
Ca3.54Cr0.23Cu2.34O2.55Sr3.22,71.0,original
Ba0.54Ca1.17Cu1.39La1.11O1.33,71.0,original
Cu1.39Eu5.77O1.62Pb6.37Sr3.22,71.0,original
Ca0.24Cu1.39Eu4.39O1.62Pb6.37Sr3.22,71.0,original
Ba1.72Ca0.68Cu2.46Er2.61La2.05O2.48,71.0,original
Ba1.72Cu1.39F0.41O1.23Y2.04,71.0,original
Cu0.76O1.31Pb1.51Sr6.74Tl2.14,71.0,original
Ba1.4Cu1.39O1.29Pr0.17Sr0.22Yb7.41,71.0,original
Ba1.72Cu1.33O1.29Y2.04,71.0,original
Ba1.72Cu0.13Hg7.24O0.49,71.0,original
Ba1.18Cu1.39La0.9O1.26Sr0.58,71.0,original
Ba1.72Co0.41Cu1.32O1.31Y2.04,71.0,original
Ba1.72Cu1.36O1.3Y2.04,71.0,original
Ca1.05Cu1.38O1.31Pb1.51Sr3.22Tl2.14,71.0,original
Ba0.64Cu1.39Gd8.59O1.29Sr1.46,71.0,original
Ca0.43Cu0.76F5.12Nd2.34O0.75Sr3.22,71.0,original
Ba1.72Cu2.02O1.59Pr0.13Y1.56,71.0,original
Ba1.72Cu1.39Nd3.84O1.32,71.0,original
Ba1.72Cu1.39O1.23Y1.98,71.0,original
Bi2.15Ca1.55Cu1.39Ga0.64O1.31Pb1.83Sr3.22,71.0,original
Ca0.43Cd5.88Cu0.76O1.31Pb1.51Sr3.22Y0.85,71.0,original
Ba1.72Cu2.01O1.59Y2.04,71.0,original
Ba1.72Cu2.02Eu6.81O1.59,71.0,original
Ba0.64Cu1.39Gd8.86O1.29Sr1.46,71.0,original
Ba3.66Cu3.28La1.4O3.29Y2.04,71.0,original
Ba1.72Cu2O1.59Y2.04,71.0,original
Ba1.78Cu0.15Hg6.66O0.5,71.0,original
Ba1.72Cu1.9Ga0.18O1.59Y2.04,71.0,original
Ba1.72Cu1.36O1.31Y2.04,71.0,original
Ba1.72Cu0.13O1.01Tl8.96,70.0,original
Bi3.16Ca1.05Cu0.76O1.66Sr3.22,70.0,original
Ba3.88Cu3.91O3.48Y4.44,70.0,original
Bi3.16Ca1.05Cu0.76O1.65Sr3.22,70.0,original
Bi3.16Ca0.8Cu0.76O1.59Sr3.22Y0.13,70.0,original
Ca0.43Cu1.08Er3.78O1.31Pb1.51Sr3.22,70.0,original
Ba0.64Cu1.39O1.3Sr1.46Tm7.72,70.0,original
Ba1.72Cu2.01O1.59Y2.04,70.0,original
Ba1.72Cr0.18Cu0.13Hg4.3O0.5,70.0,original
Ba0.75Ca0.43Cu1.39La0.97O1.35Y0.85,70.0,original
Ba1.4Cu1.39Nd5.34O1.27,70.0,original
Cu1.39O1.49Sr3.22Y2.04,70.0,original
Ca2.29Cu1.39Ga1.1O1.87Sr3.22,70.0,original
Ba0.64Ca1.05Cu1.39La1.11O1.31,70.0,original
Cu0.13O0.22Sr3.22,70.0,original
C1.12Cu0.76O5.22Pb1.51Sr6.74Tl2.14,70.0,original
Cu0.76N1.68O1.31Pb1.51Sr6.74Tl2.14,70.0,original
Cu0.76N2.86O1.31Pb1.51Sr6.74Tl2.14,70.0,original
Ba1.72Cu0.13Hg7.24O0.49,70.0,original
Cu0.76N1.68O2.15Pb1.51Sr6.74Tl2.14,70.0,original
Cu0.76N2.86O2.15Pb1.51Sr6.74Tl2.14,70.0,original
Ca2.04Cu1.39O1.97P0.85Sr3.22Y0.13,70.0,original
Ba2.8Ca1.05Cu3.73Fe0.1La3.26O3.99Y0.85,70.0,original
Ba1.72Ca0.18Co1.23Cu1.2O1.27Y1.32,70.0,original
Ba1.72Cu1.39O1.3Pr0.13Y1.56,70.0,original
Ba1.18Ca0.12Cu1.39La1.47O1.24,70.0,original
Ba1.72Cu1.97O1.59Y2.04,70.0,original
Ba1.72Ca0.55Cu2.4Er2.23La2.12O2.41,70.0,original
Ba0.75Ca1.55Cu2.65La1.26O2.62Yb6.91,70.0,original
Ba1.72Cu1.39O1.23Y1.92,70.0,original
Ba1.72Cu2.01O1.58Y2.04,70.0,original
Bi3.16Ca0.8Cu0.76O1.67Pr0.13Sr3.22,70.0,original
Ba1.72Cu1.39O1.23Y2.04,70.0,original
Ca0.55Cu0.76O1.31Pr0.28Sr3.22Tl4.41,70.0,original
Ba1.72Cu1.32Ni0.11O1.31Y2.04,70.0,original
Ba1.72Cu1.33Dy10.45O1.27,70.0,original
Ba1.72Cu1.37O1.27Sm6.8,70.0,original
Ba1.72Cu1.37Dy10.45O1.28,70.0,original
Ba1.18Ca0.3Cu1.39La1.26O1.3,70.0,original
Ba1.18Ca0.3Cu1.39La1.26O1.36,70.0,original
Ba1.72Cu0.13Hg7.24O0.53,70.0,original
Bi3.16Ca1.3Cu1.53O1.59Sr3.22,70.0,original
Ba1.29Cu1.39La0.25O1.35Y2.04,70.0,original
Ba1.51Co0.77Cu1.27O1.33Y2.04,70.0,original
Ba1.67Cu1.36O1.28Y2.04,70.0,original
Ba1.72Cu1.33O1.29Y2.04,70.0,original
Ba1.72Cu1.33O1.3Y2.04,70.0,original
Bi3.16Ca1.05Cu0.76O1.68Sr3.22,70.0,original
Ba1.72Ca1.05Cu2.56La1.83Nd2.34O2.52,70.0,original
Ba1.72Ca1.05Cu2.49La1.83Mo0.16Nd2.34O2.47,70.0,original
Ba1.72Ca3.54Cu2.02F10.35O1.59,70.0,original
Cl8.18Cu0.76O0.75Sr4.98,70.0,original
Ir1.97Nb6.17Pt4.23,8.0,original
B1.62Ni4.69Tm7.72,8.0,original
As1.47Co0.96Eu4.04Fe1.99Sr0.4,8.0,original
Ge9.94La0.4Pr0.36Pt9.58,8.0,original
B1.62Nb0.72,8.0,original
Ir1.31Se1.15,8.0,original
Fe1.02Se0.43,8.0,original
Bi1.47In1.68,8.0,original
Pb2.81,8.0,original
Ir6.85Lu0.74Sc23.76Si3.27,8.0,original
B3.4Er7.65Ir0.58Rh6.44,8.0,original
Eu4.73Mo7.78S8.78Sn0.21,8.0,original
Ca3.54Rh7.17Sn11.37,8.0,original
Ir6.85Lu8.37Sc12.47Si3.27,8.0,original
Co0.33Ga0.13Nb0.77,8.0,original
B1.62Mo0.94,8.0,original
In1.68La3.97,8.0,original
Ge9.94Pr0.75Pt9.58,8.0,original
Bi1.47F2.5La1.11S2.07,8.0,original
N5.76V0.73,8.0,original
B0.73Li14.58Ni0.18Pd5.71,8.0,original
Cu0.11La2.23O0.48,8.0,original
C0.24La0.4Ni2.3Th1.74,8.0,original
Al0.24B1.62Mg2.19,8.0,original
Tc7.38W2.06,8.0,original
Nb3.63Pt2.05,8.0,original
Ir1.62Nb1.1,8.0,original
Hf9.88Ta5.24,8.0,original
B1.62Dy1.5Ho9.31Ni4.79,8.0,original
Au1.47Nb0.85,8.0,original
B3.4Er7.65Ru1.53Th12.33,8.0,original
Mo7.34Pb1.18Se4.83Yb5.91,8.0,original
Br11.06C0.24I10.24Y4.44,8.0,original
Al0.98Ca1.05Si0.25,8.0,original
C0.15Mg3.17Ni7.28,8.0,original
Ir0.54Nb0.63,8.0,original
In1.68La3.95,8.0,original
Fe1.02Te1.88,8.0,original
Ca3.35Rh7.17Sn11.37,8.0,original
Bi3.16Pb2.81Te9.36,8.0,original
Bi1.47Sn0.78,8.0,original
Ge9.94La0.11Pr0.52Pt9.58,8.0,original
Ta2.67Ti1.94,8.0,original
As1.47Ba0.1Fe1.92K2.59Zn0.58,8.0,original
Bi1.47F3.55La1.11S2.07,8.0,original
Cu0.12La2.32O0.48,8.0,original
C0.24Ni2.3Th1.37Y1.09,8.0,original
Ga1.1,8.0,original
Nb0.85Ta0.94,8.0,original
Mo1.1Re5.89,8.0,original
Ti3.46,8.0,original
Nb1.01,8.0,original
Fe1.1Te1.95,8.0,original
B1.62Er1.45Lu2.61Ru2.65,8.0,original
Ge9.94Pr0.67Pt9.58,8.0,original
B1.62Er6.87Ni4.79Tb1.35,8.0,original
B1.97La0.68Nd1.34Pt4.96,8.0,original
H0.11Nb1.04,8.0,original
Pb2.97,8.0,original
B1.62Nb1.1,8.0,original
As0.4Fe1.02La1.11P0.47,8.0,original
Nb0.85Ta0.96,8.0,original
B1.62Gd1.79Ni4.79Y1.54,8.0,original
Nb2.37Sn0.78,8.0,original
Bi0.17Pb2.38,8.0,original
In1.32La3.98,8.0,original
La3.98Se2.38,8.0,original
Nb0.47Ti1.16V0.1,8.0,original
Nb0.11Ti3.32,8.0,original
P1.78Pb3.13,8.0,original
V0.26Zr2.16,8.0,original
Ga0.5V2.32,8.0,original
Ga1.1V2.15,8.0,original
Nb0.78,8.0,original
Hf7.89Nb0.85,8.0,original
Ti2.09V0.33,8.0,original
B1.62Ru2.65Y2.04,8.0,original
B3.4Er7.65Rh7.17,8.0,original
B0.37Nb6.17Si0.72,8.0,original
Re4.4W5.25,8.0,original
La1.11Ru8.24Si0.58,8.0,original
Bi4.85Pb22.59,8.0,original
Ge4.08Pr1.53Pt7.15,8.0,original
Fe1.02La1.11P1.78,8.0,original
F0.3Fe1.02La1.11P1.78,8.0,original
P1.4Pt7.15Sr1.46,8.0,original
As1.47Ba0.64Fe2.22,8.0,original
Ga0.21Mn0.41Nb0.78,8.0,original
Ta1.28Ti2.63,8.0,original
Bi3.16Se1.77,8.0,original
Eu0.24Ge9.94Pr0.71Pt9.58,8.0,original
Nb1.1Se1.15,8.0,original
Ag4.11Mo4.84S5.42,8.0,original
B1.62Co0.5Ni4.44Y2.04,8.0,original
As1.47Ba0.55Fe2.3,8.0,original
Ca3.16Rh7.17Sn11.37Sr0.22,8.0,original
Hf3.5Nb0.62,8.0,original
Pb1.05Sn0.46,8.0,original
B0.68Li14.58Pd6.02,8.0,original
Fe1.02Se0.54,8.0,original
Ir5.11Lu6.67Si1.56,8.0,original
As1.47Ba0.46Fe2.3K0.79,8.0,original
As0.43Ba0.64Fe2.3P2.26,8.0,original
As0.32Fe1.02La1.11P0.66,8.0,original
Ca3.29Co0.77Rh7.17Sn11.37,8.0,original
Cu0.11La2.3O0.48,8.0,original
B0.73Li14.58Pd5.9,8.0,original
C0.24La0.54Ni2.3Th1.37,8.0,original
Pb2.9,8.0,original
O0.2Rb1.82W5.25,8.0,original
Mo0.47Ta2.56,8.0,original
Ti1.81Zr1.21,8.0,original
Ti2.29Zr0.84,8.0,original
Ti3.25,8.0,original
Ti3.32,8.0,original
Ti2.06V0.33,8.0,original
B1.62Co0.23Ni4.69Tm7.72,8.0,original
Ag4.11Mo7.34S8.78,8.0,original
Rh7.17Sn11.37Yb29.9,8.0,original
B1.62Ni4.79Pr0.17Y1.44,8.0,original
La3.86Tl4.41,8.0,original
Ta2.32Zr1.95,8.0,original
Hg3.12O0.2Re1.43,8.0,original
Si0.25,8.0,original
Nb4.9Ni2.3Si0.25,8.0,original
B0.73Li14.58Ni1.3Pd4.8,8.0,original
Nb0.28Ti2.67,8.0,original
Ir6.85Lu11.76Sc7.46Si3.27,8.0,original
Ca3.54Ir6.85Sn11.37,8.0,original
Ir6.85Lu3.29Sc19.99Si3.27,8.0,original
As0.65Co0.21Fe0.93Li7.24,8.0,original
Ba7.12Ca1.05Si15.36,8.0,original
C0.24Co3.5Ni0.31Th3.56,8.0,original
Co4.41Mg3.17Ni7.28,8.0,original
Mo0.41Re0.76,8.0,original
Bi1.47Ce5.81F2.5S2.07,8.0,original
Eu0.58Ge9.94Pr0.67Pt9.58,8.0,original
As14.67Ca12.24Fe12.51Pt7.2,8.0,original
B3.4Er7.26Gd0.34Rh7.17,8.0,original
Ir1.36Se1.15,8.0,original
Ba0.64O0.2Pb2.58,8.0,original
Cu0.11La2.26O0.48,8.0,original
Ba0.81Ca0.3Cu1.39La1.76O1.35,8.0,original
B1.62Ho8.21Ni4.79Y0.25,8.0,original
C0.24La0.25Ni2.3Th2.1,8.0,original
Hf9.88V1.53,8.0,original
Mo5.84,8.0,original