formula,Tc,type
As1.19Ca0.62Cr0.37F6.27Fe0.87Sr1.07,0.0,synthetic
Ba1.72Cu1.22Nd2.55O1.27Y0.49,0.0,synthetic
Ba1.72Cu1.39Gd3.71O1.12Pr0.11Y0.38,0.0,synthetic
Bi1.32Cu0.82La0.68O2.62Ru10.2,0.0,synthetic
Cu0.72Hf9.88P3.39,0.0,synthetic
Cs8.08N1.25O0.78W9.35,0.0,synthetic
As0.8Ba0.64Fe1.34,0.0,synthetic
As0.22Cr0.49Zr3.7,0.0,synthetic
Ba0.37Cr1.96Cu1.39Lu0.75O2.71,0.0,synthetic
Cr0.24N5.82Nb0.5,0.0,synthetic
Bi2.97H3.37Ti8.27Zr7.33,0.0,synthetic
Ba0.64O0.16Sb1.09,0.0,synthetic
Ca3.46O1.03Os3.03,0.0,synthetic
Ba0.41Ru1.65Sb1.85Si0.2Ti8.52,0.0,synthetic
As1.47Ca1.04Fe2.23,0.0,synthetic
Bi0.7La2.55Sb0.48,0.0,synthetic
N5.82Nb1.05Sr1.46W0.13,0.0,synthetic
Co2.39La1.11Sb2.38,0.0,synthetic
Nb3.85Si0.55,0.0,synthetic
Fe1.02Se0.4Sr1.2,0.0,synthetic
Ba1.72Cu1.39O1.04Y1.99,0.0,synthetic
Ba0.49Cr1.96Cu1.39O2.71,0.0,synthetic
Fe0.54Pt0.78Se0.31Sn0.23Sr1.46,0.0,synthetic
N5.82Nb0.11Sr0.47,0.0,synthetic
Ba0.19Rh0.64,0.0,synthetic
La2.55Te2.01,0.0,synthetic
B1.56Nb0.96,0.0,synthetic
As0.87Fe0.21Y2.04,0.0,synthetic
B0.93Co3.7La0.24Ni1.33Sb0.87Y1.11,0.0,synthetic
As1.32Ba0.64Fe2.3P0.27,0.0,synthetic
As0.25Ba0.36Ca0.13Mn28.34Se0.83,0.0,synthetic
La2.49O0.28Sb0.34,0.0,synthetic
Ba0.56Pt2.29Sb1.04,0.0,synthetic
Co1.8La1.11Sb2.38,0.0,synthetic
As0.21Ce5.24Co2.27Fe0.34In4.67Sm0.54,0.0,synthetic
La2.36O0.41,0.0,synthetic
Li7.24Os2.12,0.0,synthetic
As2.25Ca1.05Fe4.7,0.0,synthetic
As1.47Ca0.75Fe1.02,0.0,synthetic
Bi1.46Ce4.62F2.48Nd0.84S2.05,0.0,synthetic
F8.98Fe0.55La0.59Na1.41Ni0.73Si0.12,0.0,synthetic
Bi20.05Fe2.03Ir3.73La1.11,0.0,synthetic
B0.73La1.11N5.82Rh0.12Ru2.27,0.0,synthetic
Bi1.4O1.03Os3.03Sc0.15,0.0,synthetic
As0.26Fe1.02H3.58Mg1.43P0.79Sr0.63,0.0,synthetic
As1.27H2.7Ti7.47Zr6.62,0.0,synthetic
Ca6.02Fe4.98La1.83Pt6.9Sb14.05V0.34,0.0,synthetic
Co1.32Fe0.61O1.03Os3.03Sr3.22,0.0,synthetic
Bi1.47Yb18.38,0.0,synthetic
Ba1.13Cu0.87Gd6.32O0.77Pr0.2,0.0,synthetic
As0.65Si0.18Ti4.19Zr0.59,0.0,synthetic
As0.27B0.66Eu3.63F2.71Mn14.15,0.0,synthetic
Bi1.47S1.96,0.0,synthetic
As1.47Ba0.64Cu0.71,0.0,synthetic
Fe1.02I9.79,0.0,synthetic
As0.27Fe1.02H0.39P0.77Sm5.66,0.0,synthetic
As0.65Ni0.85Zr3.7,0.0,synthetic
Bi1.12Ce5.81Co0.16F1.95H0.69S1.6,0.0,synthetic
Cu0.35Gd8.77P3.01,0.0,synthetic
B1.61Cr0.4,0.0,synthetic
Ce0.17Cu0.12La2.46O0.46,0.0,synthetic
Cr1.65CuEu6.81F0.97O2.02,0.0,synthetic
Cr0.83Na21.88O0.31Si6.59,0.0,synthetic
B1.19La2.94N16.22Ru4.09Zr1.71,0.0,synthetic
Ba0.6Ga2.21Yb0.31,0.0,synthetic
Na0.73O1.15Ti15.48,0.0,synthetic
As0.69Cu0.76,0.0,synthetic
H3.58La1.11O0.19Si0.25,0.0,synthetic
As0.65F0.18Fe0.63La1.11Ni0.53,0.0,synthetic
As1.46Ba0.66Fe2.25,0.0,synthetic
As0.29Fe0.46Ir0.63Na3.91,0.0,synthetic
Ga0.55Mg3.9Si0.16,0.0,synthetic
As0.54B0.84Fe0.3Mn14.15,0.0,synthetic
B1.58Nb,0.0,synthetic
Co8.96O0.91Sr4.6,0.0,synthetic
As0.14Ba0.91Cu0.68Fe0.2Gd7.26O0.59Pr0.12,0.0,synthetic
As0.63Ti4.27Zr3.77,0.0,synthetic
Ba1.52O0.75Tl7.23,0.0,synthetic
Cu1.76Fe0.27O0.75Se1.15Sr4.98,0.0,synthetic
Ba0.54Cr1.96Cu1.39O2.71,0.0,synthetic
As0.62Ba0.6Fe0.97H3.58,0.0,synthetic
As1.47Ba0.64Ir0.72Mn14.15Ru1.31,0.0,synthetic
Al0.95Mn42.54N5.69,0.0,synthetic
Al2.03As0.77Ca4.78Fe2.3O1.03P1.49,0.0,synthetic
N0.4O0.55Sb0.31Ti12.15,0.0,synthetic
As0.26Cr0.22Fe0.41H3.58Sr1.46,0.0,synthetic
As0.51Fe1.02La1.11P0.23,0.0,synthetic
C0.41Cu0.93La0.76O2.36Ru9.66Sr,0.0,synthetic
As0.65Ni1.01Zr3.7,0.0,synthetic
As1.04BaFe1.88In0.48P0.26,0.0,synthetic
Au7.67Sb0.11Sn0.63Sr1.46,0.0,synthetic
Cr0.26Ni0.89O0.72Os1.26Sr3.22,0.0,synthetic
Co6.88Hf9.88Si0.58,0.0,synthetic
Ge0.32Rh0.79,0.0,synthetic
Ir3.32O1.31Pb6.37,0.0,synthetic
Cr1.11N5.82Rh1.05,0.0,synthetic
Al2.03As0.77Ca4.78Fe2.3O1.03P1.5,0.0,synthetic
As0.46Bi0.17Ce5.53Co0.95F0.48Fe0.42H2.75S0.34,0.0,synthetic
Cr1.96Cu1.39La0.59O2.71Sr0.34,0.0,synthetic
Mn42.54N4.51Zn1.56,0.0,synthetic
As0.38Ce5.81Fe0.61P0.51,0.0,synthetic
As1.22P0.2Sb0.1Sr1.19Ti8.52,0.0,synthetic
As1.03Ba0.64Fe2.3Se0.26,0.0,synthetic
Fe1.03Te2.27,0.0,synthetic
Ca0.52Cr1.96Cu1.39O2.71,0.0,synthetic
Bi1.44Ce4.47F2.5Nd0.82S2.07,0.0,synthetic
Ca0.4Cr0.22Ni1.1Si0.44Y4.53,0.0,synthetic
Ca1.05Cr0.31O0.57V0.48,0.0,synthetic
Ba2.42C10.41Mg0.66,0.0,synthetic
Co8.96Ge0.38La1.11Si0.39,0.0,synthetic
Sb0.89Y2.04,0.0,synthetic
As0.65FeNa3.91,0.0,synthetic
Ba0.64Ge3.22Ir3.34Se4.43,0.0,synthetic
Se0.28Ta5Te3.33,0.0,synthetic
B1.56Nb0.66Zn0.46,0.0,synthetic
Cr0.17O0.83Os1.87Sr4.33,0.0,synthetic
Ge0.23La0.55O0.37Sr1.46Ti2.49,0.0,synthetic
As0.65Cr0.36Pr0.56,0.0,synthetic
As0.43F0.31Fe1.02La1.11P0.26,0.0,synthetic
Mg13.03Na3.72Si0.97,0.0,synthetic
Cr0.19N5.82,0.0,synthetic
N9.62S0.55Ti5.43,0.0,synthetic
F14.47Na3.07Ni1.77Ru0.44Sr0.44,0.0,synthetic
Ba0.37Bi0.21Cr1.96Cu1.39O2.71,0.0,synthetic
Ba0.51Bi0.74O1.03Os3.03Sc2.12Y0.69,0.0,synthetic
As0.12Cu0.54P2.3Zr3.7,0.0,synthetic
Co8.96GeSi0.14Y1.22Zr1.17,0.0,synthetic
Li7.24V0.25,0.0,synthetic
Ca2.09Mn14.15O1.03Os3.03,0.0,synthetic
Ag11.59Mg0.22P1.59Sr1.28,0.0,synthetic
Cs5.15Ge0.32I15.2Sn0.33,0.0,synthetic
Bi8.23La3.98Ti3.23V0.12,0.0,synthetic
La1.11Pt2.19Sb1.15,0.0,synthetic
Ni2.3P1.78Sr1.39,0.0,synthetic
As2.69Ca2.88F9.43Fe3.96,0.0,synthetic
Bi1.47Ce6.61F2.15S1.77,0.0,synthetic
As2.19Ca2.48F12.63Fe3.78,0.0,synthetic
Fe1.28H3.58Li5.77S0.32,0.0,synthetic
Al1.15As3.51Ca7.9Fe6.58Ir2.8O0.33P2.32,0.0,synthetic
Ba0.64Mg6.46Pb3.54Si0.21,0.0,synthetic
Ca0.53Cr1.96Cu1.39O2.71,0.0,synthetic
Ni1.01O1.03Os3.03Sr4.13,0.0,synthetic
F11.61Na0.9Ni0.41O0.84Ru1.97Sr2.37,0.0,synthetic
Ba1.11Cu1.08Gd7O0.66P0.83Pr0.14,0.0,synthetic
Cr0.33Na83.42Si29.45,0.0,synthetic
Ba0.53C0.2Pr0.14,0.0,synthetic
Ir1.53Sb2.38,0.0,synthetic
O1.03Os3.03Sr3.22Y1.79,0.0,synthetic
As0.17PSb0.63Zr5.94,0.0,synthetic
Ag0.86As0.65Mg3.17,0.0,synthetic
Cr0.22Ni1.11O0.77Os1.54Sr3.22,0.0,synthetic
Co6.69Ge0.74La0.4P0.84,0.0,synthetic
As0.5Ca0.57F10.35Fe0.79O0.91Ru2.07Sr2.5,0.0,synthetic
Ga0.43Mg5.1Si0.11Sn0.62,0.0,synthetic
As1.47Ba0.28Fe1.95K1.69Mn1.47Ru0.31,0.0,synthetic
F5.12Fe0.84La0.91Si0.2,0.0,synthetic
Au7.67P0.3Si0.18Sr1.46,0.0,synthetic
C0.21Y2.04,0.0,synthetic
As0.65Cr0.48Pr0.7,0.0,synthetic
N5.82,0.0,synthetic
As3.12Fe4.86La3.98O0.19,0.0,synthetic
Ca7.15Cr0.19Fe5.94La1.44Pt8.19Sb15.51,0.0,synthetic
Au7.67Sb0.15Si0.19Sr1.46,0.0,synthetic
Ca2.29Fe0.81O1.08Os3.55,0.0,synthetic
Cr0.15Ga0.64Pr0.23Si0.16Yb6.59,0.0,synthetic
As0.65Eu2.01Fe1.02H3.58Sr0.92,0.0,synthetic
Ba0.4Cr1.96Cu1.39O2.71,0.0,synthetic
As0.68Ca0.23Fe1.07Li7.24,0.0,synthetic
As1.47Ba0.48Fe0.75Ru2.81,0.0,synthetic
As0.55Ce5.81Cr0.66,0.0,synthetic
Al1.06As0.2Mg3.17Si0.27,0.0,synthetic
Ba1.42Fe0.1O0.83Tl6.39,0.0,synthetic
Bi0.75Ga0.39Yb15.65,0.0,synthetic
Ba0.6Ge1.54V1.47,0.0,synthetic
Ca2.13O1.28Os5.77Zn0.23,0.0,synthetic
Ir1.22P2.65Sr1.04V0.87,0.0,synthetic
Ba1.27O0.71Sb0.43Tl5.17,0.0,synthetic
As0.25B0.69Fe0.97Ni0.79Zr3.7,0.0,synthetic
H0.13Li7.16O0.17Os2.86,0.0,synthetic
Cr1.08N5.82Rh0.29,0.0,synthetic
As0.65Mn0.39Ni1.54Sm6.8,0.0,synthetic
Ba1.39Cr0.29O0.9Tl6.2,0.0,synthetic
Al0.74Lu5.11Si0.43,0.0,synthetic
La0.73O0.17Sr0.98Ti4.19,0.0,synthetic
B0.24Ca1.73Mn14.15O0.66Os2.33,0.0,synthetic
Bi2.04Fe0.61O0.11PrSe0.34Sr0.29,0.0,synthetic
Cs2.66Fe0.69I15.55Sn0.12,0.0,synthetic
Al2.03As0.73Ca4.78Fe2.3O1.03P1.6,0.0,synthetic
Ge0.25Sn0.4Te1.32,0.0,synthetic
Ag2.85As2.3Ca1.05Fe3.58,0.0,synthetic
La0.65Pt2.29Sb1.55,0.0,synthetic
Ca3.89O0.63Os2.13Sb0.62,0.0,synthetic
Cr0.39N5.82Sr0.34,0.0,synthetic
La0.85O0.27Sr1.14Ti4.19,0.0,synthetic
Na1.42P1.09Sb0.69Ti8.52,0.0,synthetic
As1.18Ba0.64Fe2.18P0.38,0.0,synthetic
B0.18Fe1.27Y2.04,0.0,synthetic
As1.47Ca0.81Ce0.94Fe1.02,0.0,synthetic
Ag5.14As0.45Bi0.2Mg2.36,0.0,synthetic
B1.62Cr0.28Zn0.77,0.0,synthetic
Bi2.16H1.42Ti5.96Zr5.28,0.0,synthetic
Ba1.38Ga1.75Si0.4,0.0,synthetic
Co8.96O0.9Sr4.57,0.0,synthetic
As0.72H3.58Sb1.04Ti8.52Zr7.55,0.0,synthetic
La1.11O1.34Ru6.19Si0.11,0.0,synthetic
Mn40.16N4.83Zn1.67,0.0,synthetic
Ca1.05Si0.17V0.29,0.0,synthetic
Ba1.27Cu0.61P7.36Pd1.6,0.0,synthetic
Sb1.09Ti4.19Zr3.7,0.0,synthetic
As0.65Cr0.46Eu6.81F4.89,0.0,synthetic
As1.25Pt0.5Y2.04,0.0,synthetic
Bi0.8Ce11.8Sb0.4,0.0,synthetic
As0.4Fe0.12Pd1.33Se0.11Sr1.46,0.0,synthetic
Ba0.18Ca0.69O0.95Os3.03Zn1.43,0.0,synthetic
Cr1.23Nd1.05,0.0,synthetic
C3.66K5.04Mn0.19,0.0,synthetic
Ba0.67Bi0.61Cu0.31Nd7.27O0.71,0.0,synthetic
Ni1.08Se0.11Ta2.52Te4.13,0.0,synthetic
Ca2.16Cr102.14Sr1.65,0.0,synthetic
As0.59Cr0.45F5.12K0.24Sr1.34,0.0,synthetic
Bi1.47Nd1.57S0.76,0.0,synthetic
Ba0.32Mg13.03Si0.92Y0.37,0.0,synthetic
Ca0.52Mn14.15O1.03Os3.03Sr2.21,0.0,synthetic
Ba0.15Fe1.42La0.34Sb2.38,0.0,synthetic
Ba0.56Cr0.97O0.48,0.0,synthetic
Bi0.96H1.04Sb0.67Ti5.51Zr4.88,0.0,synthetic
La0.73Mn32.19N1.51Si0.4Zn0.52,0.0,synthetic
Cr0.12Cu0.59Hf9.88P3.12,0.0,synthetic
Cr0.75N5.82Rh0.38Ta3.77,0.0,synthetic
Ca1.53O0.36Os3.03,0.0,synthetic
Ag3.3As2.14Ca0.81Fe3.33,0.0,synthetic
As0.36Ba0.31Cr0.31Nd4.84O0.27,0.0,synthetic
Ba0.28Fe1.66La0.16Sb2.38,0.0,synthetic
As0.63Cr0.47F5.12Sr1.42,0.0,synthetic
Cl1.11Cr0.83Ti4.19,0.0,synthetic
As1.47Ba0.64Co1.22Fe0.64Mn14.15,0.0,synthetic
Ce5.81Cr0.12P1.27,0.0,synthetic
F5.12Fe1.02K2.26La0.49Se0.2Si0.1,0.0,synthetic
As1.39Ca0.98Li0.29Mn28.34,0.0,synthetic
Ca0.42Ga0.47Yb4.95,0.0,synthetic
As0.65Fe1.01H0.95La1.11,0.0,synthetic
As0.51Eu5.68Fe0.81H3.58,0.0,synthetic
Ca3.8Cr0.76O0.95Sb0.44,0.0,synthetic
Ca1.38O0.42Os3.03Zn0.51,0.0,synthetic
As0.14Fe0.53Si0.33Zr3.7,0.0,synthetic
Pt2.29Sb2.34,0.0,synthetic
Ba0.47Ge1.3Mg6.09,0.0,synthetic
Co2.56La1.11Sb2.38,0.0,synthetic
O0.2Os3.03Sr0.94,0.0,synthetic
B1.56Er7.88Ni4.35,0.0,synthetic
As0.21Cr0.36Mn28.34N4.43,0.0,synthetic
Ge0.39Mg6.46Pt1.57Si0.15,0.0,synthetic
O0.35Os3.03Sr2.1,0.0,synthetic
Bi1.63F10.35Sr3.22Ti6.56,0.0,synthetic
Ce5.81Cu0.11In0.17P1.71,0.0,synthetic
Ca2.23Cr0.48O0.48,0.0,synthetic
Ca1.65Li7.24O0.19Os1.45,0.0,synthetic
C0.14Fe0.1Y2.04,0.0,synthetic
Cd1.57Rh1.95,0.0,synthetic
La3.98Sb6.07Ti3.41,0.0,synthetic
Ge0.57Rh0.24,0.0,synthetic
Ba0.64Bi0.72Ge1.4Ir1.44S4.69,0.0,synthetic
Ba0.87Ca0.3O0.53Os3.03,0.0,synthetic
As0.59Cr0.41La1.11,0.0,synthetic
B0.56Mg5.57Ni12.46Sr0.41,0.0,synthetic
La2.1Mn28.34Te4.08,0.0,synthetic
As0.33N0.31O0.39Sr0.24Ti11.51,0.0,synthetic
Ba0.33Cr1.12O0.23,0.0,synthetic
B5.18Ca0.28Ni29.7Sr4.3,0.0,synthetic
BaC0.12Tl2.84,0.0,synthetic
B1.26Bi0.13Er9.22Ni3.64,0.0,synthetic
Co0.55Cr0.35La3.26Sb5.14,0.0,synthetic
Ba0.24Cr1.96Cu0.61O2.71Y0.55,0.0,synthetic
Ba0.18Cl3.46V0.28,0.0,synthetic
Al0.1Cr1.63Cu1.08Lu3.85O2.15,0.0,synthetic
As0.65Ti4.19Zr3.34,0.0,synthetic
Bi1.47Yb19.66,0.0,synthetic
C0.12Ca0.64Ga0.29Yb3.17,0.0,synthetic
Co4.85Ge1.57Hf9.88,0.0,synthetic
Bi0.27La2.39O0.31,0.0,synthetic
Mg13.03Si0.92Sr0.92Y0.38,0.0,synthetic
Cr66.78Cu0.17O0.54Sr3.74,0.0,synthetic
P1.07Sb1.61Ti8.52,0.0,synthetic
Bi0.91Y3.64,0.0,synthetic
As0.35Cr0.12Fe0.68La1.11P0.6,0.0,synthetic
O0.63Sb0.91Ti13.68,0.0,synthetic
Cu0.68Ni4.45Se117.42Sr4.62V0.27,0.0,synthetic
Ca3.54Si0.18,0.0,synthetic
Al0.53Ge0.5Mg3.17Ni1.59Si0.1,0.0,synthetic
Ga0.3Ge0.37Mg3.6Ni1.22,0.0,synthetic
Al0.65La1.03Ni6.5,0.0,synthetic
Ca8.11Fe6.75Pt11.7Sb15.11Sr0.28,0.0,synthetic
Ba0.64Ge1.48Mg6.46,0.0,synthetic
Ni2.3P1.78Rh0.56Sr0.8,0.0,synthetic
Ca1.05Cr0.45O0.46,0.0,synthetic
Ni1.41P3.11V1.36,0.0,synthetic
Ba0.29Mg13.03Si0.92Sr0.27,0.0,synthetic
Ca0.59Cr0.66O0.48,0.0,synthetic
Bi3.16Ca0.8Mn14.15,0.0,synthetic
As0.78Y2.04,0.0,synthetic
As0.44Ca0.11Cu0.61,0.0,synthetic
Hf28.82N22.37,0.0,synthetic
Ru8.17Si1.07Ti6.11,0.0,synthetic
Sr0.97Ti4.19Zr0.91,0.0,synthetic
Ir2.61O0.47P0.72Pb3.57Sr0.46,0.0,synthetic
Ca1.05Cu0.12Si0.24,0.0,synthetic
Hf19.18N10.94S0.87,0.0,synthetic
Bi1.47Eu6.55S0.41,0.0,synthetic
Co8.96Ge0.2La0.86Si0.46,0.0,synthetic
C3.97K5.32,0.0,synthetic
Pd1.71Si0.21Sr1.46,0.0,synthetic
As0.4Ba0.64Fe2.3P0.13Sb1.38,0.0,synthetic
Au11.73P1.78Sr1.46,0.0,synthetic
Cr0.13N5.82Nb1.1Sr0.94,0.0,synthetic
As0.17Ce5.81Cr1.33Cu0.6O1.41,0.0,synthetic
B1.62Cr0.31Nb0.27,0.0,synthetic
Fe0.25Ge0.4Se0.17Sr1.46,0.0,synthetic
Ni0.47O1.03Os3.03Sr3.22Y1.41,0.0,synthetic
B1.25Er6.06Ni4.14,0.0,synthetic
As3.15Fe4.86La3.98O0.48,0.0,synthetic
As0.65Cr0.35Ni0.48Sm6.8,0.0,synthetic
As0.89Ni1.14Zr3.7,0.0,synthetic
B1.01Mn14.15Os0.97Sr0.91,0.0,synthetic
Ba1.72Cu1.39O1.03Y1.96,0.0,synthetic
As0.65Ce5.81Co0.71Fe0.78H2.13,0.0,synthetic
C3.77K5.32Mo0.14,0.0,synthetic
As2.24Ca0.95Fe4.66,0.0,synthetic
As0.61Ce5.75Cr0.45,0.0,synthetic
As2.14Ca2.43F12.47Fe3.72La0.11,0.0,synthetic
Ba0.54Co8.96Ge1.42,0.0,synthetic
As1.47Ba0.64Fe1.28Ru2.09,0.0,synthetic
La4.11Si0.29,0.0,synthetic
Fe0.74H2.3Li6.29S0.48V0.5,0.0,synthetic
Bi2.71Fe1.62O0.33Pr0.39Se0.83Sr0.99,0.0,synthetic
Na124.95Si44.88,0.0,synthetic
Cr1.43N5.82Rh1.64,0.0,synthetic
La2.48O0.34Sb0.22,0.0,synthetic
Ge1.01V0.46,0.0,synthetic
Cr0.68Ti4.19Zr0.98,0.0,synthetic
As1.12Ca0.37Fe1.02Pr0.17,0.0,synthetic
As0.96Bi0.84H3.58Ti8.52Zr7.55,0.0,synthetic
Pt2.29Sb1.15Sr0.98,0.0,synthetic
Ba0.64Ge0.91Mg13.03Si0.51,0.0,synthetic
Bi0.24Mn14.15,0.0,synthetic
As0.78Cr0.45F5.4Sr1.36,0.0,synthetic
Ca5.5O2.44Os5.84,0.0,synthetic
Ag7.63Bi1.21Mg0.39,0.0,synthetic
Bi1.47Pr1.44,0.0,synthetic
Ba0.64Cr1.96Cu0.47O2.71,0.0,synthetic
Cr0.91O0.48Sr1.66,0.0,synthetic
As0.65Ce5.81Co0.99Fe0.45H2.84,0.0,synthetic
Cr1.06N5.82Rh0.95,0.0,synthetic
Cl5.54Cs10.49I9.83La0.66O0.31Sn0.18Te3.27,0.0,synthetic
Cr0.19F2.98N5.82Nb0.35Ti2.42,0.0,synthetic
Bi3.16Cu0.74O0.46Se1.13Y2.01,0.0,synthetic
Ba0.19Sn0.26Te0.92,0.0,synthetic
Ba0.37O0.2Os3.03Sr0.14,0.0,synthetic
Ba0.64Mg6.46Si0.28Sn0.69,0.0,synthetic
CaCr0.46Nd0.24O0.48,0.0,synthetic
As0.15Ca0.55Cu0.39Si0.11,0.0,synthetic
Ca1.89Co4.41O0.77Os2.53P0.21,0.0,synthetic
Fe1.05Se0.27Te0.99,0.0,synthetic
B0.42Co4.41Ni0.63P1.17Y0.43,0.0,synthetic
B1.58Er7.83Ni4.51,0.0,synthetic
Ce11.19Sb1.02,0.0,synthetic
As3.12Fe4.86La3.95,0.0,synthetic
Ca1.59O1.03Os3.03Zn2.02,0.0,synthetic
Cu1.79O0.65Se1.04Sr4.82,0.0,synthetic
Al2.03As0.54Ca4.78Fe2.3O1.03P2.01,0.0,synthetic
Ca1.26Cr10.52Cu1.23O2.42,0.0,synthetic
As0.65Ge0.37Ta2.92,0.0,synthetic
Ge0.11Mo0.77Na1.42Sr1.46,0.0,synthetic
Li7.24O0.35Os1.26V0.84,0.0,synthetic
Cs2.85I23.38La1.76Sn0.14Te1.68,0.0,synthetic
As1.46Ba0.63Co4.37Mn14.15,0.0,synthetic
Ir0.91La0.27Sb2.38,0.0,synthetic
Ca1.53Cr0.48O0.48,0.0,synthetic
B0.48Ba0.25Fe2.3Se0.71Y0.52,0.0,synthetic
Al0.72Ca0.11Lu5.03Si0.5,0.0,synthetic
La2.75Mg1.76Ni6.22O0.75,0.0,synthetic
Ca5.68O2.55Os5.88,0.0,synthetic
As2.13Ca1.05Fe4.34,0.0,synthetic
As0.55Ba1.46Fe0.87In2.07,0.0,synthetic
As0.51Fe1.02La1.11P0.24,0.0,synthetic
Ca1.05O0.74V1.51,0.0,synthetic
Ca1.05O0.4Os3.03Zn0.48,0.0,synthetic
Ca5.22O2.35Os5.5,0.0,synthetic
As0.65Cr0.12F0.34Fe0.58Mn0.99Sm6.8,0.0,synthetic
Ge1.99Nb0.15V2.93,0.0,synthetic
Co4.04Cu0.19Ge0.67Hf9.88P1.93,0.0,synthetic
Au1.99Ge0.51Sr1.46,0.0,synthetic
Ca0.56Fe0.52H3.58La0.24P1.04,0.0,synthetic
Cr0.65P1.13Zr3.7,0.0,synthetic
B0.66Ir1.48LaN5.82,0.0,synthetic
Fe1.2H3.41Li5.84S0.79,0.0,synthetic
Cr0.81Ti4.19,0.0,synthetic
Ba1.3Bi0.11O0.81Os3.03,0.0,synthetic
Ga0.8Si0.22Yb11.68,0.0,synthetic
Bi1.59Pr1.42,0.0,synthetic
As0.27Fe0.33Si0.4Zr3.7,0.0,synthetic
Ca0.3Co4.41Os0.52P1.4,0.0,synthetic
Bi0.83Cr1.96Cu1.39O2.71Sr0.37,0.0,synthetic
As1.05Ba0.37H0.87Mn14.15Rh1.23Sr0.15,0.0,synthetic
Fe0.69Mo0.17Na0.47Se0.38Sr1.46,0.0,synthetic
Cu0.16Hf14.65N5.57P1.86S0.37,0.0,synthetic
Ca2.15Cr64.96Cu0.21La0.21O0.6,0.0,synthetic
As0.58LaNi2.3,0.0,synthetic
As0.17Ca0.53Fe1.02H3.58PSr0.43,0.0,synthetic
Al2.03As0.43Ca4.78Fe2.3O1.03P2.28,0.0,synthetic
Ca0.71Rh1.7,0.0,synthetic
Bi20.05La1.11Rh2.56Ru6.92,0.0,synthetic
Bi1.3Cr1.96Cu1.39Lu0.25O2.71,0.0,synthetic
Ba2.26Cu2.23La1.35O2Y0.88,0.0,synthetic
Ba0.64Ge3.25Rh3.52S1.26Se2.82,0.0,synthetic
Bi0.61K5.12Mo1.89S1.66,0.0,synthetic
Ba0.25Ge2.01Ni1.65Rh2.17Se48.75Sr1.65,0.0,synthetic
Fe0.86La1.11Sb1.45,0.0,synthetic
As0.41F0.95Fe0.62La1.11S0.49,0.0,synthetic
Ir2.87Ta17.51Te1.37,0.0,synthetic
As1.2Ca0.5Fe1.88Li7.24,0.0,synthetic
Bi20.05La1.11Pd2.76Pt6.17,0.0,synthetic
As1.47Ca0.97Fe2.22Mn0.1,0.0,synthetic
Cr95.73Sr4.64,0.0,synthetic
Ir0.49O1.08Os2.48Pb3.7Sr2.6,0.0,synthetic
Ca0.17Cr1.96Cu1.39La0.7O2.71,0.0,synthetic
As0.74Ba0.64Cu0.21,0.0,synthetic
Ba0.62Cr0.98O0.46,0.0,synthetic
As2.13Ca2.41F14.01Fe3.32Ru0.69Sr0.76,0.0,synthetic
Ca1.06Ir1.61O0.47Pb4.74,0.0,synthetic
La3.82Sb5.86V0.69,0.0,synthetic
Al0.46Lu3.35Si0.25,0.0,synthetic
Co8.96Ge1.57Y1.87,0.0,synthetic
B1.43Fe2.03Zr3.7,0.0,synthetic
Bi0.18La2.38O0.34,0.0,synthetic
As1.47Ba0.64Ir0.6Mn14.15Rh0.95,0.0,synthetic
F12.15Na1.31Ni0.67Sr2Ti2.7,0.0,synthetic
Ni0.46Se0.2Ta3.85Te3.76,0.0,synthetic
Cr1.96Cu1.39Lu2.75O2.71,0.0,synthetic
Fe1.89Na3.59O0.41,0.0,synthetic
As0.65Fe0.63Gd8.95Ir0.42,0.0,synthetic
Fe0.79Ni0.16Si0.46Zr3.7,0.0,synthetic
Ag4.11Bi0.92La0.16P1.15Sr0.87,0.0,synthetic
Ca1.28Fe0.98La3.47Pt1.53Sb7.96V0.64,0.0,synthetic
As1.17Fe1.66K3.1Mn1.8Os0.48,0.0,synthetic
Bi0.94Cr1.96CuO2.71,0.0,synthetic
Ge0.64Mg2.81Ni2.3,0.0,synthetic
Pt7.15S0.63Sb0.27Sr0.95,0.0,synthetic
B0.11Cr1.01La0.13N5.82Rh1.7,0.0,synthetic
Ag4.11Mg0.71P1.31Sr1.02,0.0,synthetic
Cr1.96Cu1.39O2.71Sr0.6,0.0,synthetic
Bi0.76K5.09O0.2Os1.35,0.0,synthetic
As0.41Ba0.64Bi1.97Ir0.5Mn14.15,0.0,synthetic
Ir1.33Sb2.38,0.0,synthetic
Ag4.11Bi2.45Ce5.81Sb0.43,0.0,synthetic
Ca3.15Cr0.14Si0.15,0.0,synthetic
As0.58Co0.65Fe0.53Gd8.95Ir0.41,0.0,synthetic
Au7.67Si0.23Sr1.37,0.0,synthetic
Fe0.25H1.12Li6.76S0.16,0.0,synthetic
As0.41Mn14.15Rh0.52,0.0,synthetic
I10.13La2.44Te1.11,0.0,synthetic
B0.15Ni6.26Si0.54Zr3.47,0.0,synthetic
Ni2.55P1.55Sr1.24Tm0.9,0.0,synthetic
As1.3Ba0.53Mn28.34,0.0,synthetic
Cr0.67N5.82,0.0,synthetic
Ca0.49Rh1.7,0.0,synthetic
Ba0.1Ge0.32Sb0.53,0.0,synthetic
As0.14Fe0.77Y2.04,0.0,synthetic
As0.45Fe1.02La1.11P0.37,0.0,synthetic
Ba0.3H2.4O0.82Sc9.81Ti4.06,0.0,synthetic
Al0.81Ni6.88Zr0.47,0.0,synthetic
Ir0.13Mn14.15,0.0,synthetic
Bi1.05Ca0.12O0.82Os3.03,0.0,synthetic
As2.4Ca0.5Fe3.47K4.12Mn0.95Ni0.16,0.0,synthetic
Cu0.2Gd3.42P2.32Sr0.77,0.0,synthetic
Fe1.02Te1.97,0.0,synthetic
Cu1.17Fe1.47K1.34O0.75Se1.15Sr4.51,0.0,synthetic
Ir1.31P1.44Sr1.46,0.0,synthetic
Cr0.67Zr3.7,0.0,synthetic
As1.28Cu0.47Zr3.7,0.0,synthetic
As1.28Cd11.81Fe2Rh0.3,0.0,synthetic
Ba0.82P7.36Pd3.3,0.0,synthetic
F15.56Na3.9Ni2.3,0.0,synthetic
Ca1.05Cr0.34O0.16,0.0,synthetic
Cr1.2Pr0.18,0.0,synthetic
B2.43Ca1.61Ni16.88Si0.26Zr1.83,0.0,synthetic
As0.52Fe1.02Sr2.94,0.0,synthetic
Bi3.16Cu0.76O0.48Se1.15Sr1.31,0.0,synthetic
C0.23Ca1.05,0.0,synthetic
Bi7.11La3.74V0.6,0.0,synthetic
Cr0.42N5.82V0.37,0.0,synthetic
Pt1.7Sb0.85Sr1.46,0.0,synthetic
Al0.61Ni5.52P0.57,0.0,synthetic
Cr0.43La3.83Sb5.55,0.0,synthetic
Fe2.01Na3.91O0.23,0.0,synthetic
Bi20.05La1.11Pd4.14Rh3.38,0.0,synthetic
Ge0.41Mo0.34Na0.72O0.14Sr1.46,0.0,synthetic
K3.98Ni4.18P0.37Se0.85,0.0,synthetic
B1.51Fe2.15Zr3.7,0.0,synthetic
Ir2O1.2Os1.12Pb5.11Sr1.07,0.0,synthetic
As0.21Ba0.39La0.78Mn28.34O0.64,0.0,synthetic
Co6.96Ge0.27Hf9.88Si0.44,0.0,synthetic
Cu0.71Fe2.3O0.75Se1.1Sr5.05,0.0,synthetic
Co0.91Ir0.96La0.23Sb2.38,0.0,synthetic
Ce2.47Co1.38In6.64Y0.98,0.0,synthetic
Co3.65La0.28PSb0.94,0.0,synthetic
As0.29Fe0.29Si0.39Zr3.7,0.0,synthetic
As8.87Ca5.51Fe8.19La2.01Pt3.57,0.0,synthetic
Ca0.18Rh1.7,0.0,synthetic
Ir0.4Mo0.72Na2.52Sr0.93,0.0,synthetic
Ca3.11O1.03Os3.03Zn0.32,0.0,synthetic
As0.24Ca0.43Fe1.02H2.58La0.4P0.85,0.0,synthetic
As0.65Eu3.96F5.12Mn14.15,0.0,synthetic
Co0.45O1.03Os3.03Sr4.75,0.0,synthetic
As0.6Fe1.02H0.53La1.11,0.0,synthetic
As0.7Ca0.88Fe1.02Se0.21,0.0,synthetic
B1.41Fe2.01Zr3.7,0.0,synthetic
As0.32B0.54La0.55Ni3.09Tm3.01,0.0,synthetic
As1.47Ca0.77Fe1.16,0.0,synthetic
As0.65Fe0.59H2.35Mg3.17,0.0,synthetic
F4.37Fe0.84K5.26Se0.45,0.0,synthetic
Bi0.95O0.78Os3.03,0.0,synthetic
As1.3Fe2.04O0.52Sr6.02V1.2,0.0,synthetic
La3.42Sb4.14V0.42,0.0,synthetic
B1.43Nb1.63,0.0,synthetic
Al2.03As0.63Ca4.78Fe2.3O1.03P1.82,0.0,synthetic
As1.04Ca0.42Fe1.63Li7.24Os1.49,0.0,synthetic
Cr0.19Cu0.24Fe0.49Ni1.26O0.64Se0.64Sr4.24,0.0,synthetic
Au7.67Si0.24Sr1.46,0.0,synthetic
As1.13Ba0.64Bi0.48Ir1.26Mn14.15,0.0,synthetic
As2.3Ca0.39Fe4.25La1.94,0.0,synthetic
Al0.52B0.62Ni5.97Tm3.35,0.0,synthetic
Cr0.3O0.68Os1.06Sr3.22Y0.54,0.0,synthetic
F8.38Fe0.62La0.67Na1.18Ni0.59Si0.14,0.0,synthetic
As3.33Fe4.86La3.98O0.48,0.0,synthetic
Ba0.64Cr0.96O0.46,0.0,synthetic
Ba0.64Ga0.59Sb0.8,0.0,synthetic
Bi0.69Ce0.23Nd9.49O0.18,0.0,synthetic
Ca2.92Li7.24O0.9Os3.03,0.0,synthetic
O0.35Os3.03Pb0.47Sr1.77,0.0,synthetic
Cu0.96Fe1.9K1.71O0.75Se1.15Sr4.39,0.0,synthetic
Fe0.38Sn0.35Te1.83,0.0,synthetic