formula,Tc
Fe0.031Ru0.969,0.052
Ag5Pb2O6,0.051
Ir0.984Ni0.016,0.051
Ir1,0.05
Sn0.97As0.015Te0.985,0.05
Hf1Mo2,0.05
O3Sr1Ti1,0.05
Ir0.95Pd0.05,0.05
Ir0.125Os0.2Rh0.675,0.05
Ir0.7Ru0.1Rh0.2,0.05
Cu0.86Si0.14,0.05
Pr1Ir2Zn20,0.05
Pr1V2Al20,0.049
Pr1Ir2Zn20,0.048
Sn0.985Te1,0.048
Ag5Pb2O6,0.048
Cu0.81Ga0.19,0.048
Sn0.97As0.006Te0.994,0.047
Pr1V2Al20,0.047
Cu0.786Sb0.214,0.047
Ir0.91Pd0.09,0.047
Au0.95Sn0.05,0.046
Ag0.835Sn0.165,0.046
Co0.004Ir0.996,0.045
Ir0.8Pt0.2,0.045
Cr0.476Mo0.524,0.043
Al0.03Au0.92In0.05,0.043
Sn0.985Te1,0.042
Au0.92Ga0.02In0.06,0.042
Au0.91In0.09,0.041
Cu6La1,0.04
Cu3Sb1,0.039
Mo1Te1.63S0.37,0.038
Pr1V2Al20,0.038
Ir0.54Os0.1Rh0.36,0.038
Sn0.97As0.007Te0.993,0.037
Os0.32Rh0.68,0.037
Ir0.83Pd0.045Pt0.125,0.035
Ag0.845Sb0.155,0.035
Ce1.005Ni2.025Ge1.975,0.035
Ir0.88Pd0.12,0.034
Au0.84In0.16,0.034
Sn1Te1,0.033
Al0.02Au0.92In0.06,0.033
Sn0.97As0.022Te0.978,0.032
Ir0.7Ru0.25Rh0.5,0.032
Ir0.775Pt0.175Rh0.05,0.032
Ir0.9Pd0.1,0.032
Au0.95Ga0.05,0.031
Sn0.97As0.02Te0.98,0.03
Au0.915In0.085,0.03
Ce1.005Ni2.02Ge1.98,0.03
Ce0.98La0.02Pt3Si1,0.03
Ir0.72Pt0.08Rh0.2,0.03
As1Rh1.4,0.03
Cr0.57Mo0.43,0.03
Mo0.28Rh0.72,0.03
Ir0.8Rh0.2,0.029
La0.8Pr0.2Se1,0.028
Sn0.99Te1,0.028
Ir0.815Rh0.185,0.028
Ag0.865Sb0.135,0.026
Al0.01Au0.92In0.07,0.026
Ir0.75Rh0.25,0.026
Be1,0.025
Au0.92In0.08,0.025
C8Rb1,0.025
Ag0.845Sn0.155,0.024
Cu0.86Ge0.14,0.023
Sn0.99Te1,0.023
C8Rb1,0.022
Sn0.97As0.01Te0.99,0.022
Au0.92In0.08,0.02
Sn0.97As0.008Te0.992,0.02
Pt1,0.019
Ir0.3Ru0.2Rh0.5,0.019
Sn0.97As0.009Te0.991,0.019
Ag0.875Ga0.125,0.018
Ag0.885Sb0.115,0.017
Fe0.043Ru0.957,0.016
Ir0.7Os0.3,0.016
Au0.93In0.07,0.016
Cd0.6Mg0.4,0.016
Mo0.7Nb0.3,0.015
W1,0.014
Al0.05Au0.95,0.014
Sn0.995Te1,0.013
Sn0.97As0.025Te0.975,0.013
Mg0.93Pb0.07,0.012
Ag0.7Zn0.3,0.011
Sn1Te1,0.01
Au0.94In0.06,0.01
Gd0.71Sm1.14Ce0.15Cu1O4,0.01
Mo3Re1,0.007
C1Nb0.4Ta0.6,0.006
Ag0.81In0.19,0.002
Ag0.9Ga0.1,0.002
Pt1,0.002
Pt1,0.001
Gd0.9Pr0.95Ce0.15Cu1O4,0.001
La1.85Sr0.15Cu0.96Ni0.04O4,0.001
La1.95Sr0.05Cu1O4,0.001
La1.92Sr0.08Cu0.99Ni0.01O4,0.001
Pt1,0
Au0.978In0.022,0
Li1,0
Rh1,0
La3.5Ba3.5Cu7O16.415,0
Tl2Ba2Cu1O6.164,0
Tl1Sr2Ca1Cu2O6.88,0
Gd0.6Pr0.4Ba2Cu3O6.6,0
Gd0.7Pr0.3Ba2Cu3O6.5,0
Y1Ba2Cu3O6.1,0
Y0.97Ca0.03Ba2Cu3O6,0
Y0.88Ca0.12Ba2Cu3O6,0
Y0.77Ca0.23Ba2Cu3O6,0
K0.92Bi1.08O3,0
La1.85Sr0.15Cu0.98Fe0.02O4,0
Nd1.85Ce0.15Cu1O4.045,0
Y1Ba2Cu2.58Co0.42O7.019,0
Fe0.5Ba2Nd1Cu2.5O7.54,0
La1.94Ce0.06Cu1O4,0
Y1Ni1Co1B2C1,0
Y1In2.73Sn0.27,0
Er1Ni1.93Fe0.07B2C1,0
Er1Ni1.88Fe0.12B2C1,0
Tm1Ni1.8Fe0.2B2C1,0
B2Nb1,0
B1.92Nb0.86,0
Fe1.03Se0.45Te0.55,0
Na1Fe0.9Co0.1As1,0
Ba1Fe1.98Pt0.02As2,0
Ba0.5K0.5Fe1.84Mn0.16As2,0
Ba1Fe1.5Ru0.5As2,0
Ba1Fe0.75Ru1.25As2,0
Ba1Fe2As2,0
Ba1Fe2As1.72P0.28,0
Gd1Fe0.95Ir0.05As1O1,0
Gd1Fe0.67Ir0.33As1O1,0
La1Ru2.91Fe0.09Si2,0
Ca10Pt3.33Fe9.67As18,0
Sm1Fe0.92Mn0.08As1F0.12O0.88,0
Sm1Fe0.9Mn0.1As1F0.12O0.88,0
Pr0.65Sr0.35Fe1As0.9P0.1O1,0
Ca0.75La0.25Fe1As2,0
Ca0.81Ce0.19Fe1As2,0
Li0.8Fe1.2Se0.1S0.9H1O1,0
Li0.8Fe1.2S0.41H1O1,0
La1Fe0.973Zn0.027As1F0.08O0.9,0
Ce1Fe0.69Co0.31As1H1,0
Sm1Fe1As0.47P0.53H0.15O0.85,0
La1Fe1As0.9P0.1O1,0
La1Fe1As0.8P0.2O1,0
La1Fe1As0.5P0.5O1,0
Fe1Te1,0
Ce1Fe1As1F0.06O0.94,0
La1Fe1As1H0.45O0.55,0
Ce1Co0.75Ni0.25In5,0
Na1Fe0.99Co0.01As1,0
Ta1Se0.6Te1.4,0
Ca1Fe1.94Rh0.06As2,0
Ca1K1Fe3.748Ni0.252As4,0
Ca4Al2Fe2As1.2P0.8O6,0
Ca4Al2Fe2As1P1O6,0
Ca4Al2Fe2As0.5P1.5O6,0
Ca4Al2Fe2As0.1P1.9O6,0
Ce0.82Sm0.18Co1In5,0
Ce1F0.5Bi1S2O0.5,0
Ce0.8Nd0.2F0.5Bi1S2O0.5,0
Tb2Cu0.83Pd0.17O4,0
Sr1Ti1O3,0
La1F0.5Bi0.4S2Sb0.2O0.5,0
Zr2Ti2Sb2H1,0
Zr2Ti2Bi2H1,0
Ba1Mn1Ru1As2,0
Ba1Mn1Bi2,0
La1Co2Si2,0
Gd1Co2B2,0
Y3Ni1Si3,0
Zr1Ni0.75As1,0
Cu2As1,0
Ba1Cu2As2,0
Hf1Cu2P2,0
Ba1Zn1Bi2,0
La1Rh1B1N1,0
Nb1Ge1As1,0
Ce2O2Sb1,0
Zn1B2,0
Ca1Sr1Si4,0
Ba1Rh2Ge4S6,0
Cr2Hf1,0
Sm1Ni1As1,0
Ca1Os1O3,0
Sr1Cr2O4,0
Zr2N2S1,0
Mn2Cr1N1,0
Rh1N1Cr3,0
Ca2Zn1Os1O6,0
Sr2Co1Os1O6,0
Sr1Cr1O2H1,0
Sr1Mo1O2.5N0.5,0
Mn1O2,0
Ba1Sc1O2H1,0
La1Si1O3H1,0
Ba1Cr2O4,0
Ce1Cu3Cr4O12,0
K1Os1O3,0
Bi2Os1O6,0
La3Hf1Bi5,0
Ba1Pd1Si1,0
Sr1Fe1As1H1,0
La1Fe0.5Sb2,0
Zr1Ti1Bi1,0
Zr1Ti1Sb1,0
La1Cr1As1O1,0
Ce1Cr1As1O1,0
Pr1Cr1As1O1,0
Sm1Cr1As1O1,0
Nd1Cr1As1O1,0
Ca1Mn1Bi2,0
Ba1Mn1Fe1As2,0
La1Mn2Si2,0
Ba1Co2Ge2,0
La1Ni1As1,0
K1Ni2Se2,0
Ba2Cu3P4,0
Gd1Cu1.25P1.75,0
Ta1Ge1As1,0
La1Ag1Bi2,0
Ce1Ag1Bi2,0
Gd2O2Bi1,0
Sr1Au1P1,0
Ta5Si3,0
Sr1Ni1Si3,0
Ba1Rh2Ge4Se6,0
Cr1Ta1N1,0
Sr1Os1O3,0
La1Sr1Mn1O3H1,0
Sr2Ti1O3F2,0
Hf2N2S1,0
Mn3Zn1N1,0
Sr3Os1O6,0
Ba2Y1Sc1Os1O6,0
Ba1Bi1S3,0
Ca2Cr1O4,0
Y1Ca1Cr1O4,0
Na32Si136,0
Pt1Sb2,0
Ti3O4.9N0.1,0
Na1Ti2O4,0
Sr1Cu3Cr4O12,0
Lu1Cu3Cr4O12,0
La1Cu3Ru4O12,0
Ca3Li1Os1O6,0
Pb2Os2O7,0
La3Ti1Bi5,0
Zr1Ti1As1,0
Sr1Cr1As1F1,0
Sr1Mn1As1F1,0
Mg1Ni1Ge1,0
La3Ni1Si3,0
Ba1Cu6As2,0
Zr1Cu2P2,0
Hf1Cu1Si2,0
Sr2F2Ti2Bi2O1,0
P1Ca10Ir4As10Fe10,0
Eu1Cr1As1F1,0
Ba1Mn1As1F1,0
Ba1Mn2As2,0
Y1Co2Ge2,0
La1Co2Ge2,0
Ca2Cu6P5,0
Y1Cu1Sb2,0
Zr1Cu2As2,0
Hf1Cu1Ge2,0
La1Ir1B1N1,0
Ba1Ni1Sn3,0
Ce2O2Bi1,0
Er2O2Bi1,0
Sr1Au1Si1,0
V5Ge3,0
Ta5Ir3O1,0
Ba1Ir2Ge4S6,0
Cr2N1,0
Ba1Os1O3,0
Ca1Cu3Cr4O12,0
Sr2Li1Os1O6,0
Ti4O6.99N0.01,0
Ba1Cu3Cr4O12,0
Eu1Cu3Cr4O12,0
Cd1Rh2O4,0
Ca2Os2O7,0
Pb2Ir2O7,0
La1Fe1Si1F1,0
Hf1Co2Si2,0
Ti1Si1As1,0
Mg2Pt1Si1,0
V5P3,0
Yb1Ga0.9Si1.1,0
Ti1O1Cl1,0
Zr2N2O1,0
Mn3Al1C1,0
Ca3Os1O6,0
Sr2Y1Os1O6,0
Sr1Ge1O3,0
Ti3N4,0
Na1Cr2O4,0
La3Ti1Sb5,0
Eu1Mn1As1F1,0
La1Co0.6Sb2,0
Ba1Cu1.8As2,0
Y1Cu1As2,0
Zr1Cu1Si1As1,0
La2O2Te1,0
Ba1Ir2Ge4Se6,0
Cu1N1C1,0
Ca1Ru1O3,0
Ca1Rh1O3,0
Sr2Mn1Os1O6,0
Ir1Sb2,0
Y1Cu3Cr4O12,0
Bi1Cu3Cr4O12,0
Ca5Os2O12,0
Zr2Ti2As2H1,0
Hf1Co2Ge2,0
Mn1B2,0
Cr1O1Cl1,0
Mn3Sn1C1,0
Ca2Mn1Os1O6,0
Sr2Pb1Os1O6,0
Zr3N4,0
Cr3O1,0
Zr1Ni0.75P1,0
Ca3Cr2O7,0
Ba3C60,0
Zr5Pb4,0
Ca2Fe1Os1O6,0
Na1Ir1O3,0
Ge1O2,0
Sr3Co2O6,0
Li1Os1O3,0
Rh3Ge7,0
Mg1Fe1As1H1,0
Ba1Fe1As1H1,0
Eu1Fe1As1H1,0
Mg1Fe1P1H1,0
Ca1Fe1P1H1,0
La1Fe1O1Sb1,0
Ca1Fe1O1Se1,0
Sr1Fe1O1Se1,0
K1Fe1Se1F1,0
Y1Fe1,0
Ba1Fe2Sb2,0
Ba1Fe2Se2,0
Zr1Fe1Si2,0
Zr1Fe2B2,0
Mg1Fe2As2,0
Cd1Fe2As2,0
Y1Fe2B2,0
Ca10Pt5.8Fe8.2Sb18,0
Ba2In1O3Fe1As1,0
Sr2In1O3Fe1As1,0
Sr2Fe1O1As1,0
Ba1Fe1O3As1,0
Sr4V2O5Fe2As2,0
Bi2Sr1Fe2O4Se2,0
La3O2Fe4As4,0
Ca3F2Fe4As4,0
Ag1Fe1As1,0
Ca1Fe4As3,0
Ca1Fe3Ag1As3,0
Ca1Fe3Cu1As3,0
Ca1Fe3Li1As3,0
La3O4Fe4As3,0
La3O4Fe4As5,0
Sr3Fe2Cu2Se2O5,0
Sr2.6K0.4Fe2Cu2Se2O5,0
La3O4Fe4As4,0
Ca3Fe4As4F3,0
Na1Fe2O4,0
Ba1Fe2Se2O1,0
Sr1Ti2As2O1,0
Eu1Ti2As2O1,0
Ba1Ti2Sb2O1,0
Ba1V2Ge2O1,0
Ba1V2Sn2O1,0
Ca1Mn2As2,0
Ca1Mn2Sb2,0
Ba1Mn1Co1As2,0
Ba1Mn1Rh1As2,0
Ba1Mn1Ir1As2,0
La2O1Mn2Te2,0
Ba1Mn2Se2O1,0
Zr1Co2Si2,0
Ca1Ni1As1H1,0
Zr1Ni2Si2,0
Rh1Ni1P1,0
Cu2Sb1,0
Mg1Cu1As1,0
Ce1Cu1P1O1,0
Bi1O1Cu1S1,0
La3Ru2B2N3,0
La1Ru1B1N1,0
Sr1Ga2,0
Ba1Ga2,0
La2O2Sb1,0
Ce1Ag1Sb2,0
Y2O2Bi1,0
La2O2Bi1,0
Pr2O2Bi1,0
Nd2O2Bi1,0
Sm2O2Bi1,0
Eu2O2Bi1,0
Yb2O2Bi1,0
La5Si3,0
Sr1Pd1As1,0
Sr1Pt1Sb1,0
Ba1Pt1Sb1,0
Y1Pt1As1,0
La1Pt1Sb1,0
Mg1Ag1As1,0
Sr1Co1P1,0
Sr1Ni1P1,0
Sr1Cu1P1,0
Sr1Pd1P1,0
Sr1Ag1P1,0
Sr1Ir1P1,0
Sr1Au1Sn1,0
Sr1Pt1Sn1,0
Sr1Au1Sb1,0
Ca1Au1P1,0
V56P3,0
V5As3N1,0
Nb5Si3,0
Zr5Pb3,0
Li1Mg4Si3,0
Na1Mg4Si3,0
Sr1Mg4Si3,0
Ba1Mg4Si3,0
Y1Mg4Si3,0
Ba1Ge3Mg4,0
Cr1B2,0
Ca1Cu1Si1,0
Lu2Al1Si2,0
Ba3Ga0.7Si4.3,0
La1Fe4Bi12,0
La1Co4Bi12,0
La1Ni4Bi12,0
La1Ru4Bi12,0
La1Rh4Bi12,0
La1Pd4Bi12,0
La1Ir4Bi12,0
La1Pt4Bi12,0
Nb1Cr1N1,0
Ti1N1F1,0
Ti2Sb1P1,0
Zr2Sb1P1,0
Cr2Ti1,0
Cr2Zr1,0
Ni1Te2,0
Na1Ni1F3,0
Zr1As1,0
La3Ni2O7,0
Bi2W1O6,0
Fe1O1C1I1,0
V1O1Cl1,0
Ti2N2S1,0
Ti2N2O1,0
Cs1La1Te2O5Cl1,0
Mn3Al1N1,0
Al1Ni3C1,0
Ca3Si1O1,0
Ca3Sn1O1,0
Ca2Pb1O1,0
Sr1Ag3P1,0
Sr1Ir3P1,0
Sr1Au3P1,0
Mg2C1Ni4,0
Ca4O1Sb2,0
Ca2Co1Os1O6,0
Ca1Zn1Os1O6,0
Sr2Fe1Os1O6,0
Sr1Co1Os1O6,0
Sr2Ni1Os1O6,0
Sr2Dy1Os1O6,0
Sr4Fe1Mo1O8,0
Sr1Mo1O2.5Na0.5,0
Sr1Nb1O2N1,0
La1Ba1Mn2O6,0
Y1Ba1Mn2O6,0
Bi2Y1Cu2O4Se2,0
Sr2Cr1O4,0
Bi2Sr1Cu2O4Se2,0
Ca1Cr1O4,0
Sr3Fe1Ni1Cu2Se2O5,0
Sr1La2Cu4Se2O5,0
Sr3Cr207,0
Sr3Ni2Cu2Se205,0
Ca3Cr207,0
Sr3Cu4Se2O5,0
La1Sr1Ti1O4,0
Ca3Ni12B6,0
Sr3Ni12B6,0
K1C24,0
Mg2C60,0
Ca1C2,0
Ba1C2,0
Y1C2,0
Hf3N4,0
N1Cr1,0
Sc4Ti3O12,0
Ca1V2O5,0
Li1V2O4,0
Ca1Cr2O4,0
Ba1Cu1Cr4O12,0
La1Cu3Cr4O12,0
Ag2Mn1O2,0
Li1Mn2O4,0
Sr2Nb1O3N1,0
La1Ru2O10,0
Bi3Ru3O11,0
Sr3Ru2O7C12,0
Sr2Ru1O7F2,0
Ba1Sb1O3,0
Cs1W2O6,0
Sr1W1O2N1,0
Ba2Os1O5,0
Bi1Os1O6,0
Ag2Bi1O3,0
K1Mo3S3,0
Sr1Pt3S1,0
Ba1Pt3S1,0
In1V6Se8,0
Sn1Te1,0
Co1P1,0
Ni1P1,0
Ba1Ni2P4,0
Ba1Pd2P4,0
Sr1Pt3Sb1,0
Ba1Pt3Sb1,0
La3V1Sb5,0
La3Cr1Sb5,0
La3Mn1Sb5,0
La3V1Bi5,0
La3Cr1Bi5,0
Fe3Al2Si4,0
Mg1Al2Si2,0
Mg4Al1Si6,0
Mg1.3Ga0.7Si1,0
Ba1Mg2Si2,0
Ti2Ru3Si4,0
Sr1Pd1Si1,0
Ba1Mg2Ge2,0
Ba1Mg2Sn2,0
Ba1Mg2Pb2,0
Cs1Sn1I3,0
La2Te1I2,0
Zr1Mn2,0