formula,Tc
Co1Zr2,27
P1,27
V0.65Ge0.15Al0.2,27
V0.65Ge0.25Al0.1,27
La0.99Yb0.01,27
Th1.6Ho0.4C3,27
Er5Os4Si15,27
Sr1Fe1.9Ni0.1As2,26.9
La1Fe1P1O1,26.9
Co1Zr2,26.9
Ge1,26.9
Pd0.5Bi2Te3,26.9
Ba0.9K0.1Fe2As2,26.9
Rb0.19W1O3,26.9
La1Ni1Bi1O1,26.9
Sm1Fe1As0.47P0.53H0.24O0.76,26.85
Th0.93Zr0.07B12,26.8
Mo3P1,26.8
Co1Zr2,26.8
Ta1Os1Si1,26.8
Nb1Te2,26.8
N1Ti1,26.75
La0.962Tm0.038Sn3,26.7
Cr0.6Re0.4,26.7
Cr0.369Ga0.197V0.433,26.7
Th1Rh0.85Si1.15,26.7
Sb1Ti3,26.7
Nb0.1Hf0.9N1,26.6
Sb1Ti3,26.6
Li2Pd2.4Pt0.6B1,26.6
Co1Zr2,26.5
Zr2Co1,26.5
Zr0.96Lu0.04B12,26.5
Mg1C1Ni2.98Fe0.02,26.5
V0.823Ge0.154Sn0.024,26.5
H0.51Mo0.1Nb0.765Pd0.135,26.5
Mo6Se7.5S0.5,26.5
Zr0.255V0.539Nb0.206,26.5
Lu5Ir2Rh2Si10,26.5
Sr1Pt2As2,26.5
Bi2Te2Se1,26.44
Bi2Te2Se1,26.4
Nd1Bi1S2F0.9O0.62,26.4
La0.2Sm0.8Bi1S2F0.5O0.5,26.4
Mo5.5Ru0.5Se8,26.4
La1Bi1S2F0.5O0.5,26.4
Li0.05Cs1Sr2Nb3O10,26.4
Li0.1Cs1Sr2Nb3O10,26.4
Li0.34K1Ca2Nb3O10,26.4
Ti0.01V0.99,26.4
Zr0.170V0.602Nb0.228,26.4
La0.2Sm0.8Bi1S2F0.5O0.5,26.3
La1Fe1P1O1,26.3
La1Ru2.919Ni0.081Si2,26.3
Ba1Fe1.958Rh0.042As2,26.3
Zr2Co0.8Cu0.2,26.3
C60Tb2.75,26.3
La1.89Ba0.11Cu1O4,26.3
La1.78Ba0.22Cu1O4,26.25
Li0.34Cs1Ca2Nb3O10,26.25
La0.8Th0.2Ni1C2,26.25
Ti0.453Nb0.207Si0.206B0.134,26.2
C3Ho0.2Th1.8,26.2
C3Sc1.4Th0.6,26.2
La0.95Y0.05,26.2
Mo6.3Pb1S6Se2,26.2
B1C1Mo2,26.2
Ir1Ti3,26.2
C60Yb2.75,26.2
In0.71V6S8,26.2
Tm1Rh4B4,26.2
Pb1Mo6S6Se2,26.2
Se1,26.1
V0.55Ge0.1Al0.35,26.1
Ce1Ru2,26.1
Nb0.4Ta0.6,26.1
Th1.8Ho0.2C3,26.1
Th0.6Sc1.4C3,26.1
Nd1Rh6B6,26.1
La2Sn5,26.1
Rh17S15,26.1
Sr1Pt4Ge12,26.05
Nb1S2,26
Rh17S15,26
C1,26
Zr1Ru1P0.8B0.2,26
Ca2Al2.39Si4.61,26
La1Fe1P1F0.1O0.9,26
Sr1Pt4Ge12,26
Ta2Pd0.92S5,26
Sr2.5Sn1O1,26
Nb0.9Ni0.1B2,26
Bi2Pd1,26
Li0.34K1Ca2Nb3O10,26
Bi1Te1I1,26
Hf0.08Ta0.92,26
Os0.05Zr0.95,26
Nd0.4Sm0.6Bi1S2F0.3O0.7,26
S1.005Sc1,26
Nd1Bi0.97Pb0.03S2F0.3O0.7,26
Nd1Rh4B4,26
Ge1,26
Ce0.85La0.15Ru2,26
Ba1Pt4Ge12,26
Nd1Bi0.96Pb0.04S2F0.3O0.7,26
Zr0.4Y0.6P1S1,26
Zr0.230V0.702Nb0.067,26
Zr1P1.1Se0.9,26
Zr0.5Y0.5P1S1,26
Ba0.9Rb0.1Ti2Sb2O1,26
Mo0.5Pt0.05Re0.45,26
Nb0.85W0.15,26
Ti0.564V0.376Fe0.06,26
V1,26
Sb0.25Ti0.75,26
Nd0.6Sm0.4Bi1S2F0.5O0.5,26
Bi3S3O2,26
Li0.46Cs1Ca2Nb3O10,26
Mo3P1,26
Nb0.37Ta0.63,26
Er0.01La0.99,26
Hf1P1.5S0.5,26
Ba4Sr4Si46,26
Nb0.378Mo0.167Si0.455,26
Ag0.15Bi0.85,26
Ga0.1Ge0.9,26
Ge0.22Nb1,26
La0.99Pr0.01,26
La3Te4,25.9
Mo0.15Nb0.85,25.9
Nb0.1Ti0.4V0.5,25.9
Tc0.44Th0.56,25.9
Ti0.75V0.25,25.9
Ti0.75V0.25,25.8
Sn1,25.8
B1C1Mo2,25.8
Bi0.15In0.85,25.8
Ga1V1.95,25.8
Nb0.500Zr0.250Mo0.250,25.8
Ba1Si2,25.7
Nd1Rh4B4,25.7
V1,25.7
Al13Os4,25.7
Mo0.75Pt0.15Re0.1,25.7
Mo0.15Nb0.85,25.7
Sb1Ti3,25.7
V1,25.61
La3Te4,25.6
Sn1,25.6
La1.14Nb2Se5.14,25.6
Ba1Fe1.838Co0.094Cu0.068As2,25.6
Yb1Bi1S2F0.5O0.5,25.6
Ba0.85Na0.15Fe2As2,25.6
La1Ir1P1,25.6
La2Sb1,25.6
Nd0.8Sm0.2F0.3Bi1S2O0.5,25.6
Ba1Pt4Ge12,25.6
Ba1Pt3.5Au0.5Ge12,25.6
Bi2Pd1,25.6
Bi1Te1I1,25.5
Li0.46Cs1Ca2Nb3O10,25.5
Zr2Co0.8Ga0.2,25.5
Ba2Ti2Fe1.9Cr0.1As4O1,25.5
Ag0.95Sn1.05Se2,25.5
La0.997Tb0.003,25.5
Ta0.17Zr0.83,25.5
Pr0.7Eu0.3Pt4Ge12,25.5
Bi1.5Sb0.5Te2Se1,25.5
Nb1Re3,25.5
Ce0.005La0.995,25.5
B2.03Nb1,25.5
Y1Pd2Sn1,25.5
Lu0.55Er0.45Ru1B2,25.5
Ce0.91La0.09Ru2,25.5
Mo0.202Zr0.798,25.5
La2.706Pr0.294Tl1,25.5
Fe1.13Se0.1Te0.85,25.5
Nd1Bi1S2F0.4O0.6,25.5
Nd1Bi1S2F0.3O0.7,25.5
La1Fe1P1F0.1O0.9,25.4
Pb1Te1,25.4
V1,25.4
Nd1Bi1S2F0.7O0.63,25.4
La1Bi1Se1S1F0.5,25.4
La0.99Pr0.01,25.4
Bi3.9Co0.1S3O4,25.4
Ba0.85Na0.15Ti2Sb2O1,25.3
Li0.3Cs1Sr2Nb3O10,25.3
Be22Tc1,25.3
Ca1Al1.2Si0.8,25.3
Ag0.95Sn1.05Se2,25.3
Nd0.6Sm0.4F0.3Bi1S2O0.7,25.3
Li0.2Cs1Sr2Nb3O10,25.3
La1.85Sr0.15Cu0.985Fe0.015O4,25.3
Na2Rb0.75Cs0.25C60,25.2
Y0.5Pr0.5Ba2Cu3O6.53,25.2
Eu1.841Y0.009Ce0.15Cu1O4,25.2
Ba0.47K0.53Bi0.985Pr0.015O3,25.2
Y3.25Dy1.75Os4Ge10,25.2
Mo2N1,25.2
Ba6Ca2Si46,25.2
Si1,25.2
Be8Nb5Zr2,25.2
C3Ho0.6Th1.4,25.2
Mo1Os2,25.2
Ru0.58W0.42,25.2
Sb0.28Tl0.72,25.2
Sb0.66Tl0.33,25.15
Sn1,25.1
Re0.52W0.48,25.1
Be8Nb5Zr2,25.1
C1W2,25.1
Sb2Tl7,25.1
Co1Zr2,25.1
Ge0.02Nb0.98,25.1
Na2Rb0.75Cs0.25C60,25.1
Y0.45Dy0.55Ni2B2C1,25.1
V1,25.1
Ho0.011La0.99,25.05
Nb5Zr2Be8,25.05
Rh0.05Zr0.95,25
Th1.4Ho0.6C3,25
Re0.8V0.2,25
Hf1Re2,25
Bi0.9Sb0.1,25
Lu2Ir3Si4.5Ge0.5,25
Lu2Sn1C1,25
Sr1Pt2As2,25
Mg4Al1Si3,25
La0.1Sm0.9Bi1S2F0.5O0.5,25
Nd1Bi1S2F0.29O0.71,25
Co1Zr2,25
Bi3.9Co0.1S3O4,25
Ba7.8Eu0.2Al5Si41,25
Ag1Sn0.9Bi0.1Se2,25
B6Y1,25
Ba1Fe1.8Ni0.2As2,25
Nb1Se2,25
Pb1Te1,25
Ba1Pt3.5Au0.5Ge12,25
Nd0.6Sm0.4Bi1S2F0.3O0.7,25
Rh0.94Se2,25
Zr1P1.5Se0.5,25
Zr1.75La0.25P1.25Se0.75,25
Zr1.6La0.4P1.25Se0.75,25
Sr2Ca12Cu24O41,25
La0.99Nd0.01,25
Ho0.01La0.99,25
Zr0.8Mo0.2,25
Mg1C1Ni2.975Fe0.025,25
V1,25
Os0.1Zr0.9,25
La0.92Tm0.08Sn3,25
Nd1Bi0.98Pb0.02S2F0.3O0.7,25
Ca1Rh2,25
Li0.68Nb1O2,25
Os0.5V0.5,25
Nb0.3Ta0.7,25
Cr0.002V0.998,25
La0.8Th0.2,25
Th1Ir1.6Os0.4,25
La0.3Sm0.7Bi1S2F0.5O0.5,25
Zr2Co0.7Ni0.3,25
Nb0.575Rh0.425,25
Mo0.97Fe0.03Ga4,25
Sm1Fe0.95Co0.05As1O1,25
Ba0.9K0.1Ti2Sb2O1,25
Ru0.5W0.5,25
Re0.5W0.5,25
Nd1Bi1S2F0.2O0.8,25
Nd1Bi1S2F0.3O0.7,25
La0.9Ce0.1Ru3Si2,25
Pr0.62Eu0.38Pt4Ge12,25
Ce0.7Pr0.3Ru2,25
Sr0.9K0.1Fe2As2,25
Nd0.8Sm0.2Bi1S2F0.5O0.5,25
La1.8Sr0.2Cu0.96Ni0.04O4,25
Sr2Y1Ru0.96Cu0.04O6,25
Bi2Sr2Ca0.5Pr0.5Cu2O8.329,25
Sr0.2Mo1S2,25
Lu5Ir4Si6Ge4,25
Ge0.2La0.8,25
Ti0.494Nb0.226Si0.280,25
Al0.03Ti0.81V0.16,25
Ba1,25
N1Nb1,25
Re0.83Ti0.17,25
Bi1In2,25
Hg1Sn6,25
V2.52Mo0.48Si1,25
Nb2.55V0.45Au1,25
Nb3Rh0.7Pt0.3,25
Er1Ni1.962Co0.075B2C1,25
Ti1Rh1Si1,25
Mg0.23Al0.77B2,25
Sr1Ga1Si1,25
Sr1Ga1Si1,24.9
Sr1Al1Si1,24.9
V0.749Sb0.157Al0.094,24.9
B1W1.26Re0.74,24.9
Cr0.56Re0.44,24.9
In0.85Pb0.15,24.9
Nb3Rh0.7Pt0.3,24.9
Sb1Ti3,24.9
Tc0.75Ti0.25,24.8
Sr3Ir4Sn13,24.8
Sr1Pt4Ge12,24.8
Rb0.14W1O3,24.8
Rb0.16W1O3,24.8
Nb1Re1Si1,24.8
Ba1Fe1.856Ni0.144As2,24.8
Zr2Co0.75Ga0.25,24.761
Ba1Fe1.76Co0.24As2,24.73
Ba0.5K0.5Fe1.7Ni0.3As2,24.7
La0.3Sm0.7Bi1S2F0.5O0.5,24.7
Bi3S3O3,24.7
Nd0.8Sm0.2F0.3Bi1S2O0.5,24.6
Bi2S2F0.5O0.5,24.6
La3Co4Sn12.35In0.65,24.6
Bi2F0.6S2O0.4,24.6
Sr1Pt4Ge12,24.6
Ag1Sn0.8Bi0.2Se2,24.6
Nb0.93Ni0.07B2,24.6
Ta1Ir2B2,24.6
C1Ta1,24.6
C1Ta1,24.5
B1Mo1Re1,24.5
Ho1Rh3.6Ir0.4B4,24.5
Zr1.6Y0.4P1.25Se0.75,24.5
Y2C2Br1I1,24.5
Cu1.2Rh1.8S4,24.5
Re0.4W0.6,24.5
Cr0.003V0.997,24.5
Lu0.8Dy0.2Ru1B2,24.5
Bi2Pd1,24.5
Bi0.1In0.9,24.4
Ru0.46V0.54,24.4
Bi10.1In0.9,24.4
Y2C2Br2,24.4
Y2Br2C2,24.4
Hg0.06Sn0.94,24.3
Ba1Pt3.75Au0.25Ge12,24.3
Os0.55V0.45,24.3
Y2C2Br2,24.3
Y0.6Tb0.4Ni2B2C1,24.3
Sr1Ga1.1Si0.9,24.3
La2.963Gd0.037In1,24.3
La0.9Sr0.1Fe1As0.8P0.7O1,24.3
Y2C2Br2,24.25
In0.88Sn0.12,24.24
Mo6Se7.3S0.7,24.2
Co0.069Ga0.198V0.733,24.2
Ba1Pt4Ge12,24.2
Nb5Ir0Pt3O1,24.2
Rb0.19W1O3.001,24.2
Y1Pd2Sn1,24.2
Ba1Fe1.2Ru0.8As2,24.2
Ba0.76La0.24Fe2As2,24.2
La1Ru2.865Ni0.135Si2,24.2
Rb0.23W1O3.05,24.1
Li0.6Cs1Sr2Nb3O10,24.1
Hf0.8Y0.2P1.55S0.45,24.1
La1.7Ba0.3Cu0.99Zn0.01O4,24.1
Bi2Sr1.4La0.6Cu1O6.42,24.1
Bi2Sr1.4La0.6Cu1O6.42,24
Li0.5Nb1O2,24
Ca0.4Ba1.35La1.25Cu3O6.9,24
La1.65Nd0.2Ca1.15Cu2O5.99,24
Sr2.5Ca11.5Cu24O41,24
Sm0.7Pr0.3Ba2Cu3O6.8,24
Tl1Sr1.5Ce0.5Ca1Cu2O7,24
Ca0.1La1.25Ba1.65Cu3O6.985,24
Sr2Ca12Cu24O41,24
Na0.35Co1H2.6O3.3,24
Sr11Ca12Cu24O41,24
La0.68Eu0.2Sr0.12Cu1O4,24
Na0.3Co1H2.6O3.3,24
C2Na1,24
Mo2N1,24
Sr0.2Mo1Se2,24
Hf1V1.7Fe0.3,24
Ti0.534Nb0.193Si0.273,24
Ti0.588Nb0.162Si0.250,24
Ti0.528Nb0.148Si0.196B0.127,24
Si1,24
Nb0.412Mo0.133Si0.455,24
Nb1Se3,24
Ba6.62Si46,24
Co1Zr2,24
Mo0.725Nb0.061Re0.187,24
Ru0.46V0.54,24
Ru0.4W0.6,24
N0.34Re1,24
C1Hf0.9Ta0.1,24
C1Re0.06W1,24
Nb1S2,24
Sc3.5Dy1.5Ir4Si10,24
Ho1Ni1.993Co0.014B2C1,24
Au0.2Nb0.8,24
C0.9Nb1,24
Nb0.738Ga0.184Mn0.078,24
B2Mg1,24
Zr1Ru1Si1,24
Nb2S1C0.9,24
Pb1Mo6Se7.55,24
Sc5Co4Si10,24
Y2C2Br2,24
Sr1Al1Si1,24
Ba8Si37Ge9,24
Cr0.1Nb0.9,24
Mo0.084Zr0.916,24
Rh0.035Zr0.965,24
Rh0.04Zr0.96,24
Sr0.2Mo1S2,24
Re2Th1,24
Pd0.1Ti0.9,24
Ga6Tb1,24
Np1Pd5Al2,24
La1,24
Mo1.905Hf0.095B1C1,24
Ba1Pt4Ge12,24
Ce1Fe0.85Co0.15As1O1,24
Ba0.9K0.1Fe2As2,24
Fe0.9Co0.1Se1,24
La1Fe1As0.6P0.4O1,24
Sr3Ir4Sn13,24
Tl2Mo6Se6,24
Th3Ni5C5,24
Ba1Fe1.75Zn0.14Co0.11As2,24
C1,24
Ba0.85Na0.15Ti2Sb2O1,24
Fe1Se0.82Br0.18,24
Fe1Se0.8Br0.2,24
Fe1Se0.7Br0.3,24
Sr3Ir4Sn13,23.9
Nb0.9Mg0.1N0.87O0.13,23.9
La3Co1Ru3Sn13,23.9
Co1Zr2,23.89
Eu0.5La0.5F1Bi1S1.2Se0.8,23.8
Re24Zr5,23.8
Li0.5Cs1Sr2Nb3O10,23.8
Li0.1Rb1Ca2Nb3O10,23.71
Li0.1K1Ca2Nb3O10,23.7
Np1Pd5Al2,23.7
Sr3Ir4Sn13,23.7
Ta0.7Zr0.3B1,23.7
Zr1P1.2Se0.8,23.7
Ca3Ir4Sn13,23.7
Bi2Pd1,23.7
Hf0.4Lu0.6P1.45S0.55,23.6
Hg1Ba2Cu1O4.03,23.6
Y1Ba1.5Sr0.5Cu3O6.75,23.6
Nd1Ba1Sr1Cu3O7.02,23.6
Y1Ba1Sr1Cu2.8Sn0.2O7.12,23.6
Pr1Fe1As1H0.6O0.6,23.6
Y1Ba2Cu3O6.6,23.6
Sm1Fe1As1F0.25O0.7,23.6
Y1Ba2Cu3O6.41,23.6
Sm1Fe1As1F0.15O0.85,23.6
Y1Ba2Cu3O6.45,23.6
Y1Ba1.6La0.4Cu3O7.083,23.5
Sm1Fe1As1F0.12O0.88,23.5
Y1Ba1.6La0.4Cu3O7.11,23.5
Bi2Sr2Ca1Cu2I0.98O8.21,23.5
Y1Ba1Sr1Cu2.8Sn0.2O7.122,23.5
Y1Ba2Cu3.92Ni0.08O8,23.5
Ho1Fe1As1O0.85,23.5
Y1Ba2Cu2.8Fe0.2O6.93,23.5
Y1Sr2Cu2.75Re0.25O7.3,23.5
Y1Ba2Cu3O6.45,23.5
Y0.5Pr0.5Ba2Cu4O8,23.5
Y1Ba2Cu3.92Zn0.08O8,23.5
Pb0.5Cd0.5Sr1.5Ba0.5Ca0.5Y0.5Cu2O7,23.5
Ca1La1Ba1Cu2.97Fe0.03O7,23.5
Ba1.6Sr0.4Yb0.65Ca0.35Cu3O6.15,23.5
Tl1Sr2Ba2Cu2C2.7N0.3O7,23.5
Tl1Sr2Ba2Cu2C2.4N0.6O7,23.5
Tl1Sr2Ba2Cu2C0.8N0.2O10,23.5
Eu1.5Ce0.5Ru1Sr2Cu2O10,23.45
Y0.6Pr0.4Ba0.8Sr1.2Cu3O6.89,23.4
Y0.6Pr0.4Ba0.6Sr1.4Cu3O6.89,23.4
Tl1.89Ba2Cu1.11O6.18,23.4
Sm1Ba2Cu2.92Zn0.08O6.85,23.4
Y0.6Pr0.4Ba2Cu4O8,23.4
Ru1Sr2Gd1Cu2O8,23.4
Sm1Fe1As1F0.2O0.8,23.4
Ca0.875Pr0.125Fe2As2,23.4
C0.51Sr2Ca0.5Y0.5Cu2.42O6.92,23.4
Y1La0.2Ba1.8Cu3O7.06,23.4
Ba1.6Sr0.4Yb1Cu3O6.69,23.36
Sm0.89Th0.11Fe1As1O1,23.35
Y0.6Pr0.4Ba2Cu3O7,23.32
Y1Ba1.9La0.1Cu3.972Zn0.028O8,23.3
Ca0.6Nd0.4Ba1La1Cu3O7.1,23.3
Bi1.8Pb0.2Sr2Ca1Cu1.94Co0.06O8,23.3
Y1Ba2Cu3O6.48,23.3
Bi1.8Pb0.2Sr2Ca1Cu1.96Fe0.04O8,23.3
La3Ca0.4Cd0.6Ba3Cu7O16.336,23.3
Pr1Fe1As1O0.7,23.3
Gd1Fe1As1F0.2O0.8,23.3
Yb0.7Ca0.3Ba1.6Sr0.4Cu3O6.1,23.3
Nd0.9Pr0.1Ba2Cu3O6.85,23.3
Pr1Fe1As1O0.85,23.3
Ru0.8Sn0.2Sr2Gd1Cu2O8,23.3
Y1Ba2Cu3.88Fe0.12O8,23.2
Y1Ba2Cu2.9Fe0.1O6.92,23.2
Bi2Sr2Ca0.7Gd0.3Cu2O8,23.2
Bi2Sr2Ca0.7Y0.3Cu2O8,23.2
Y1Ba2Cu3O6.48,23.2
Y1Ba2Cu2.9Fe0.1O6.8,23.2
Er0.64Ca0.36Ba1.4Sr0.6Cu2.76Co0.24O6.8,23.2
Lu0.8Ca0.2Ba2Cu3O6.91,23.1
Nd1.6Pr0.4Ba4Cu7O14.603,23.1
La3.1Gd0.2Ca0.4Ba3.3Cu7O16.473,23.1
Cu2Ba1.6Sr0.4Yb0.65Ca0.35O6.15,23.1
Tl0.7Bi0.3Sr4Cu2C1O10,23.02
Tl1Sr1.6Cr0.4Cu1O5,23
La1.3Ba1.5Ca0.2Cu3O6.72,23
Ru1Sr2Gd1Cu2O8,23
Y1Ba2Cu3H0.48O7,23
Ru0.8Sn0.2Sr2Gd1Cu2O8,23
Y1Ba2Cu2.95Zn0.05O6.75,23
Hg1Ba2Cu1O4.033,23
Bi2Sr2Ca0.57Pr0.43Cu2O8,23
Gd1.15Ba1.85Cu3O6.99,23
Nd1Fe1As1F0.12O0.88,23
Nd1Fe1As1F0.11O0.89,23
Nd1Fe1As1F0.1O0.9,23
Ce1Fe1As1H0.22O0.78,23
Ce1Fe1As1H0.21O0.79,23
Y1Ba2Cu3H0.16O6.54,23
Fe0.5Ba1Sr1Er1Cu2.5O7.439,23
La1.75Ca1.25Cu2O5.99,23
Y1Ba2Cu2.85Zn0.15O6.85,23
Nd1.2Ba1.8Cu3O6.91,23
La1.7Pr0.3Ca0.6Ba2Cu4.6O10.886,23
Y0.7Pr0.3Ba2Cu3O6.88,23
La1.85Sr0.15Ca1Cu2O6.03,23
Y0.72Ca0.28Ba2Cu3O6,23
Y1Ba2Cu3.95Zn0.05O8,23
Nd1Fe1As1F0.06O0.94,23
Y1Ba2Cu2.94Ni0.06O6.7,23
Bi2Sr2Ca1Cu2O8.329,23
Y1Ba2Cu3H0.31O6.54,23
Y1Ba2Cu3O6.45,23
Y1Ba2Cu2.7Zn0.3O6.92,23
Bi2Sr2Ca1Cu2O8.373,23
Y1Ba1.8La0.2Cu3O6.8,23
Ca0.88La0.12Fe1As1.8Sb0.2,23
Ca0.4Ba1.25La1.35Cu3O7.11,23
Y1Ba2Cu2.88Zn0.12O7,23
Sm1.2Ba1.8Cu3O6.965,23
Tl2Ba2Cu1O6.05,23
Y1Sr0.6Ba1.4Cu2.5B0.5O7,23
Sr2Cu1F2O2,23
Pb2Sr2Y0.85Ca0.15Cu3O8,23
Y1Ba2Cu2.94Fe0.06H0.4O7,23
Y0.6Ca0.4Ba1.1La0.9Cu3O7.18,23
Y1Ba2Cu3.938Zn0.062O8,23
Ca1Ba1La1Cu3O7,23
Ba1.6Sr0.4Yb1Cu3O6.64,23
Ba1.6Sr0.4Yb0.6Ca0.4Cu3O6.14,23
Ba1.6Sr0.4Yb0.6Ca0.4Cu3O6.04,23
Tl1Sr1.7Cr0.3Cu1O5,23
C1Ca3Cu2O7.1,23
Cu2C0.75Ca3O6.85,23
La2.1Yb0.2Ba2.1Ca0.4Cu5O11.802,23
Y0.6Pr0.4Ba2Cu3O6.88,23
Y0.6Pr0.4Ba1.8Sr0.2Cu3O6.85,23
Lu0.6Pr0.4Ba1.7Sr0.3Cu3O6.91,23
Sm1Ba2Cu2.8Fe0.2O6.96,23
Y1Ba2Cu3.98Zn0.02O8,23
La0.6Ca0.2Pr0.2Ba1.5Sr0.5Cu3O6.809,23
Ga1Sr2Tm0.65Ca0.35Cu2O7,23
Ce1Fe1As1F0.11O0.89,22.9
Ce1Fe1As1F0.12O0.88,22.9
Nd1Fe1As1F0.18O0.82,22.9
Sm1Fe1As1F0.1O0.9,22.9
Sm0.9U0.1Fe1As1O1,22.9
Nd1Fe1As1O0.9,22.9
Tb1Fe1As1O0.85,22.9
Sm1Fe1As0.95P0.05F0.12O0.88,22.9
Nd1Fe0.98Ru0.02As1F0.11O0.89,22.9
Bi4Sr3Ca2Tm1Cu4O16.73,22.9
Nd1Fe0.98Ru0.02As1F0.11O0.89,22.8
Ca0.3Ba1.45La1.25Cu3O7.05,22.8
Pr1Fe1As1F0.154O0.846,22.8
Sm1Fe1As1H0.4O0.6,22.8
Nd1Fe1As1F0.3O0.7,22.8
Y1Ba2Cu2.82Zn0.18O7,22.8
Ca0.2Ba1.55La1.25Cu3O7.07,22.8
Y2La0.8Ba3.2Cu6O14.2,22.8
Y1Ba2Cu2.82Co0.18O7,22.8
Y1Ba2Cu2.7Ni0.3O6.9,22.8
Y2Ba4Cu7O14.46,22.8
Y1Sr2Cu2.65Fe0.35O7.1,22.7
Sr2Cu1F2.33O2,22.7
Sr2Ba1Cu1F2O2,22.7
Y0.7Pr0.3Ba2Cu3O6.65,22.7
Er1Ba2Cu2.88Co0.12O6.78,22.7
Ba1.6Sr0.4Yb0.6Ca0.4Cu3O6.14,22.7
Sr2Cu1F2O2,22.6
Eu1.5Ce0.5Ru1Sr2Cu2O10,22.6
Y1Ba2Cu0.95Zn0.05O7.95,22.6
Yb0.6Pr0.4Ba1.7Sr0.3Cu3O6.93,22.6
Hg0.5Fe0.5Sr2Y0.6Ca0.4Cu2O6.7,22.6
Er1Ba2Cu2.78Zn0.18Fe0.03O6.93,22.6
Er1Ba2Cu2.85Zn0.06Fe0.09O6.96,22.6
Eu1Ba1.8Pr0.2Cu3O6.69,22.6
Y0.8Pr0.2Ba2Cu3.975Fe0.025O8,22.6
Nd1Fe1As1F0.16O0.84,22.6
Nd1Fe1As1F0.3O0.7,22.6
Ce1Fe1As1F0.3O0.7,22.5
Sm0.8U0.2Fe1As1O1,22.5
Na1Fe2Se2,22.5
Ca0.1Ba1.65La1.25Cu3O7.08,22.5
Gd1Fe1As1H0.3O0.7,22.5
Er0.6Pr0.4Ba2Cu3O7,22.5
Nd0.95Pr0.05Ba2Cu3O6.75,22.5
Ce1Fe1As1H0.6O0.6,22.5
Sm1Fe0.99Ni0.01As1F0.12O0.88,22.5
La1.25Ca0.15Ba1.6Cu3O7.052,22.5
Ce1Fe1As1H0.2O0.8,22.5
Y1Ba2Cu2.85Zn0.15O7,22.5
C0.5Sr2.01Ca0.44Y0.55Cu2.44O6.94,22.5
Y1Ba2Cu3O6.51,22.5
Y1Ba2Cu3.96Ni0.04O8,22.5
Y0.6Pr0.4Ba2Cu3O6.98,22.5
Y1Ba2Cu3O6.45,22.5
Ca0.891La0.109Fe2As2,22.46
Nd1Fe1As1F0.1O0.9,22.4
Tl2Ba2Cu1O6.19,22.4
Y0.6Pr0.4Ba2Cu3O6.95,22.4
Y0.6Pr0.4Ba2Cu3O6.929,22.4
Y0.6Pr0.4Ba2Cu3O7,22.4
La1.85Sr0.15Cu1O4,22.4
Ca0.858Pr0.142Fe2As2,22.38
La1.3Ba1.3Sr0.4Cu3O6.928,22.3
Y0.8Pr0.2Ba2Cu3O6.85,22.3
Fe0.5Ba1Sr1Ho1Cu2.5O7.462,22.3
La2Cu1O4.086,22.3
Y1Fe1As1O0.85,22.3
La1.2Ba1.3Sr0.5Cu3O6.943,22.29
Y1Ba2Cu2.87Al0.13O7,22.25
Y1Ba2Cu2.865Al0.135O7,22.2
Y1Ba2Cu2.8Ni0.2O6.82,22.2
Y1Ba2Cu2.8Zn0.2O6.79,22.2
Y1Ba2Cu2.7Zn0.3O6.74,22.2
La1Ba2Cu2.9O6.8,22.2
Y1Ba2Cu3O6.46,22.2
La1Ba2Cu2.9O6.82,22.2
La1.8Sr0.2Ca1Cu2O6,22.2
La1Ba1Ca1Cu2.9Ni0.1O6.85,22.2
Bi2Ca2.5Pr0.5Cu2O8.53,22.2
Y1Sr2Cu2.8W0.2O6.9,22.1
La2Cu1O4.11,22.1
Y2Tl2Sr2Cu3O11,22.1
Sm1Ba2Cu3O6.73,22.1
Y0.6Ca0.4Sr1.8Ba0.2Cu2Ga1O7,22.1
Hg0.8W0.2Ba2Cu1O4.4,22.1
Nd1.2Ba1.6Sr0.2Cu3O6.885,22.1
Tl1Sr1.8Ca0.2Yb1Cu2O7,22.1
La2Cu1O4.021,22.1
Lu0.7Ca0.3Ba2Cu3O6.88,22.1
Y0.84Sr2.16Cu2.78S0.22O7,22.1
Bi1.6Pb0.4Sr2Cu3Ca2O10.04,22.1
La2Cu1O4.093,22.1
Sr2Y1Ru0.5Cu0.5O6,22
Tl1Ba1.2La0.8Cu1O5,22
Y0.6Pr0.4Ba1.4Sr0.6Cu3O6.83,22
La2Cu1O4.06,22
La2Cu1O4.065,22
La2Cu1O4.075,22
La2Cu1O4.08,22
Y1Ba2Cu3F1.11O6,22
Hg1Ba2Cu1O4.07,22
Sm0.8Ca0.2Ba2Cu2.8Zn0.2O6.87,22
La1.3Ba1.5Ca0.2Cu3O6.92,22
Ru1Sr2Gd1Cu2O8,22
Y1Ba2Cu2.97Zn0.03O6.63,22
Y1Ba2Cu2.91Zn0.09O6.83,22
La2Cu1O4.11,22
La0.65Ca0.15Pr0.2Ba1.5Sr0.5Cu3O6.84,22
Sr2Y1Ru0.9Cu0.1O6,22
Ru1Sr2Gd1.4Ce0.6Cu2O10,22
Y0.8Ca0.2Sr1Ba1Cu2.8B0.2O7,22
S2Ti1,22
Sm1Fe1As1F0.18O0.82,22
Tb0.9Th0.1Fe1As1O1,22
Sm1Fe1As1F0.2O0.8,22
Dy1Fe1As1F0.1O0.9,22
Pr1Fe1As1F0.11O0.89,22
Gd4Fe2As2Te0.92F0.8O3.2,22
Y1Ba2Cu3O6.45,22
Sm1Fe1As1H0.43O0.57,22
Sm1Ba2Cu3O6.73,22
Ce1Fe1As1H0.3O0.7,22
Y0.6Pr0.4Ba2Cu3O6.929,22
Sm1Ba2Cu3O6.554,22
Y0.74Ca0.26Ba2Cu3O6,22
Yb0.7Ca0.3Ba1.6Sr0.4Cu3O6.78,22
Y1Ba2Cu3.92Ni0.08O8,22
Y0.65Pr0.35Ba2Cu3O7.01,22
Gd1Ba1.8Pr0.2Cu3O7.01,22
Pr1Fe1As1O0.896,22
Y0.6Pr0.4Ba2Cu3O6.76,22
Y1Ba1.8La0.2Cu3O6.7,22
Ru1Sr2Eu1.5Ce0.5Cu2O10,22
Y1Ba2Cu3.925Fe0.075O8,22
Y1Ba1.54La0.46Cu3O7.118,22
Y0.9Pr0.1Ba2Cu3O6.6,22
La1.7Sr0.3Ca1Cu2O6,22
Y1Sr2Cu2.7Re0.3O7.2,22
Nd2Tl2Sr2Cu3O11,22
Y1Sr1Ba1Cu2.5B0.5O7,22
Dy0.9Ce0.1Ba2Cu4O8,22
Y1Ba2Cu2.9Ni0.1O6.77,22
Ca1La1Ba1Cu2.94Fe0.06O7,22
Sr0.9Nd0.1Cu1O2,22
Sr0.9Gd0.1Cu1O2,22
Sr0.9Sm0.1Cu1O2,22
Y1Ba2Cu2.94Zn0.06O6.77,22
Y0.6Pr0.4Ba1.6Sr0.4Cu3O6.87,22
Y1Ba1.8La0.2Cu4O8,22
Dy1Ba2Cu2.9Zn0.1O6.96,22
Y1Ba2Cu3.96Ni0.04O8,22
Er1Ba2Cu2.79Zn0.03Fe0.18O6.97,22
La0.9Pr0.1Ba1.5Sr0.5Cu3O6.904,22
Ru1Sr2Eu1.4Ce0.6Cu2O10,22
La1.85Sr0.15Cu1O4,22
Bi0.1Pb0.4La1.2Sr1.3Cu2O5.78,22
Pr1Fe1As1O0.6,22
Ce0.62Gd0.38Fe1As1F0.175O0.825,22
Pr1Fe1As1O0.7,22
Dy1Fe1As1O0.7,22
Y0.8Ca0.2Ba2Cu2.8Zn0.2O6.74,21.96
La1.85Sr0.15Cu1O4,21.9
Li1Fe2Se2,21.9
Ca0.857La0.143Fe2As2,21.9
Pr1Fe1As1F0.1O0.9,21.9
Y1Ba2Cu2.8Fe0.2O6.8,21.9
Ca0.4Ba1.15La1.45Cu3O7.21,21.9
La1.3Ba1.5Sr0.2Cu3O6.901,21.9
Y1Ba2Cu3H0.53O6.54,21.9
Tb1Fe1As1O0.82,21.87
Sm1.28Ba1.72Cu3O7.03,21.8
Y1Ba2Cu3O6.47,21.8
Y0.85Ca0.15Sr1Ba1Cu2.5B0.5O7,21.8
Bi4Sr3Ca2Y1Cu4O16,21.8
Y1Ba2Cu2.85Zn0.15O7,21.8
Y1Ba2Cu2.95Fe0.05O6.69,21.8
Y1Ba2Cu3O6.58,21.8
Nd1.2Ba1.8Cu3O7.1,21.8
Y1Ba2Cu2.9Zn0.1O6.99,21.8
Y0.8Ca0.2Ba2Cu3O6.03,21.8
Fe1Sr2Y1Cu2O7.66,21.8
Sm1Fe1As1F0.3O0.7,21.8
Bi2Sr2Ca0.6Pr0.4Cu2O8,21.75
Sm1Fe1As1H0.066O0.934,21.7
Ru1Sr2Gd0.6Dy0.4Cu2O8,21.7
Y1Ba2Cu2.85Zn0.15O7,21.7
Y1Ba2Cu2.94Ni0.06O6.64,21.7
Y1Sr2Cu2.85Re0.15O6.95,21.7
Ba1.4Sr0.6Yb1Cu3O6.66,21.7
Ce1Fe1As1H0.4O0.6,21.7
Y1Sr2Cu2.8Re0.2O6.9,21.7
Y1Sr2Cu2.7Mo0.3O7.1,21.6
Y1Sr2Cu2.65Mo0.35O7.4,21.6
Y1Sr2Cu2.7Fe0.3O6.9,21.6
La1.9Sr0.1Ca1Cu2O6.03,21.6
Y0.8Zn0.2Ba2Cu3O7,21.6
Pr2Tl2Sr2Cu3O11,21.6
Sr0.92Sm0.08Cu1O2,21.5
Sr0.9La0.1Cu1O2,21.5
La2Cu1O4.12,21.5
Y0.85Ca0.15Ba2Cu2.85Zn0.15O6.85,21.5
Y0.8Ca0.2Ba2Cu2.8Zn0.2O6.73,21.5
Y0.9Ca0.1Ba1.6La6Cu3O7.18,21.5
Tl1Sr2Ca1Cu2O6.74,21.5
Tl1Sr2Ca1Cu2O6.58,21.5
Bi1.8Pb0.2Sr2Ca1Cu1.92Co0.08O8,21.5
Tl1Sr2Ba2Cu2C0.9N0.1O10,21.5
Tl1Sr1.8Cr0.2Cu1O5,21.5
La1.35Ba1.5Ca0.15Cu3O6.67,21.5
Eu1Ba2Cu2.85Ga0.15O6.76,21.5
Y1Ba2Cu2.88Ni0.12O7,21.5
Sr0.9Gd0.1Cu1O2,21.5
La1.85Sr0.15Cu1O4,21.5
Y1Ba1.8Cu2.8Co0.2O6.95,21.5
Bi1.6Sr0.4Yb0.65Ca0.35Cu3O6.075,21.4
Er1Ba2Cu2.73Zn0.24Fe0.03O6.92,21.4
Sr0.9La0.1Cu1O2,21.4
Sr0.9La0.1Cu1O2,21.3
Ru0.8Sr2Y1Cu2.2O7.8,21.3
Ru1Sr2Gd1Cu2O8,21.3
Sr0.9Gd0.1Cu1O2,21.3
Ca1.8Cu1Cl2O2,21.3
Sr0.9La0.1Cu1O2,21.2
Gd0.9Ca0.1Ba1Sr1Cu3O6.875,21.2
Nd0.8Th0.2Fe1As1O1,21.2
Fe2As2Ca4Mg0.75Ti2.25O7.5,21.2
Pr1Fe1As1F0.1O0.9,21.2
Ca0.85La0.15Fe1As1.98Sb0.02,21.2
Ca0.76Ce0.24Fe1As1.8Sb0.2,21.2
Ca0.76Pr0.24Fe1As0.9Sb0.1,21.2
Ca0.84Nd0.16Fe1As0.9Sb0.1,21.2
Y1Ba2Cu2.961Zn0.039O6.78,21.2
Y0.6Pr0.4Ba2Cu3O6.98,21.2
Li1Fe3Se2O2,21.2
Sm1Fe0.95Ru0.05As1F0.15O0.85,21.14
Ce1Fe1As1O0.85,21.1
Sr0.9La0.1Cu1O1.96,21.1
Ba2Cu1O4,21.1
Sr0.95La0.05Cu1O2.01,21.1
Sr0.88La0.12Cu1O1.97,21.1
Ru1Sr2Gd1Cu2O8,21.1
Sm1Fe1As1F0.15O0.85,21.1
Sm0.9Pr0.1Ba2Cu3O6.85,21.1
K0.8Fe1.97Mn0.03Se2,21.1
Bi2Sr2Ca1Cu2O8.428,21.1
Y1Ba2Cu3H0.64O6.54,21.1
Y1Ba2Cu2.6Al0.4O7,21.02
Pb1Sr0.8Ba1.2Y0.7Ca0.3Cu3O8.41,21
Eu1.2Ba1.8Cu3O7.18,21
Y0.75Ca0.25Ba2Cu2.75Zn0.25O6.76,21
Y1Sr2Cu2.8Re2O7,21
La2.77Ca0.46Ba2.77Cu6O14.246,21
Y1Ba2Cu3O6.6,21
La2Cu1O4.11,21
Sr0.9La0.1Cu1O2,21
Y1Ba2Cu2.85Zn0.15O7,21
La2Cu1O4.06,21
La2Cu1O4.08,21
La2Cu1O4.09,21
Sm0.9Ca0.1Ba2Cu2.8Zn0.2O6.85,21
La1.85Sr0.15Cu1O4,21
La2Cu1O4.022,21
Er1Ba2Cu2.79Zn0.12Fe0.09O6.95,21
Eu0.5Sr0.5Ba1.6Pr0.1Cu3O7.07,21
Sr0.9La0.1Cu0.99Zn0.01O2,21
Gd1.2Ba1.8Cu3O7.03,21
Ga0.8Sr2Y0.6Ca0.4Cu2.2O7,21
Sm1Fe1As1F0.09O0.91,21
Tb1Fe1As1O0.85,21
Sm1Fe1As1F0.2O0.8,21
Fe2As2Ca4Mg0.75Ti2.25O7.5,21
Yb0.8Fe2Se2,21
Li0.84H1Fe1.14Se1O1,21
Y1La1.8Ba3.2Cu6O14.49,21
Ca0.1Ba1.65La1.25Cu3O7.06,21
Y0.9Ca0.1Ba2Cu3O6.4,21
Sm1Fe1As1F0.15O0.85,21
Ca0.923Nd0.077Fe2As2,21
Y1Ba2Cu3.92Mn0.08O8,21
La1.8Sr0.2Cu1O4,21
Tl1Ba1Sr1Cu1O5,21
La1Ba1Sr1Cu3O7.01,21
Y0.8Pr0.2Ba2Cu3O6.75,21
Sr0.9Pr0.1Cu1O2,21
C60,21
Sm1Fe1As1F0.1O0.9,21
Ca0.5Nd0.5Ba1La1Cu3O7.17,21
Nb0.6Ru0.6Sr2Eu1.5Ce0.5Cu2O10,21
B2Mg0.988Sc0.012,21
Nd1Fe1As1F0.3O0.7,21
Y1Ba2Cu2.85Ni0.15O6.78,21
Nd0.85Pr0.15Ba2Cu3O6.85,21
Bi1.7Pb0.3Sr2Ca0.55Y0.45Cu1.94Zn0.06O8,21
Bi1.7Pb0.3Sr2Ca0.5Y0.5Cu2O8,21
La2Cu1O4,21
Y1Ba2Cu3O6.5,21
Dy0.6Pr0.4Ba2Cu3O6.9,21
La1.828Sr0.172Cu1O4,21
Y2Ba4Cu7O14.6,21
Ca0.835La0.165Fe2As2,21
Tl1Ba1.2La0.8Cu1O5,21
Y1Ba2Cu2.94Zn0.06O6.76,21
C0.48Sr2Ca0.4Y0.6Cu2.46O6.97,21
Ca0.2Ba1.55La1.25Cu3O7.05,21
Ce1Fe1As1H0.065O0.935,21
Gd1Ba2Cu2.7Fe0.3O6.9,21
Gd1Ba2Cu2.82Fe0.18O6.91,20.95
Bi2Sr2Ca0.5Y0.5Cu2O8,20.9
Bi2Sr2Ca0.6Pr0.4Cu2O8,20.9
Bi1.5Ga0.5Sr1.8Ca1.2Cu2O8,20.9
Bi1.6Pb0.4Sr4Cu2C1O11,20.9
Y0.6Ca0.4Sr2Cu2Ga1O7,20.9
Y0.7Ca0.3Sr1.5Ba0.5Cu2.8Cr0.2O7,20.9
Y0.6Ca0.4Sr2Cu2Ga1O7,20.86
Y0.6Ca0.4Sr2Ga1Cu2O7,20.8
La1.8K0.2Cu1O4,20.75
Nd1.2Ba1.4Sr0.4Cu3O6.789,20.75
Lu0.8Ca0.2Ba2Cu3O6.13,20.7
Nd1.4Pr0.6Ba4Cu7O14.541,20.7
Ba1.6Sr0.4Yb0.7Ca0.3Cu3O6,20.7
Cu5C0.5Sr2Ca1O10.8,20.7
La2.5Y0.5Ca1Ba3Cu6.16Fe0.84O16.634,20.7
Sm0.8Pr0.2Ba2Cu3O6.95,20.7
Y1Ba2Cu2.97Zn0.03O6.68,20.6
Yb0.55Pr0.45Ba1.7Sr0.3Cu3O6.88,20.6
Y1Ba2Cu2.97Li0.03O6.6,20.6
Eu0.7Pr0.3Ba2Cu3O6.66,20.6
Ru1Sr2Gd1Cu2O8,20.6
Ga0.9Sr2Y0.6Ca0.4Cu2.1O7,20.6
Mg1B1.8C0.2,20.6
Ce1Fe1As1F0.16O0.84,20.5
Sm1Fe1As1F0.15O0.85,20.5
La1.82Sr0.18Cu1O4,20.5
Ca0.84La0.16Fe1As1.99P0.01,20.5
Y1Ba1Sr1Cu2.75Sn0.25O7.163,20.5
Y1Ba1Sr1Cu2.75Sn0.25O7.16,20.5
La1.847Sr0.153Cu1O4,20.5
Li0.8Fe1.2Se1H1O1,20.5
Y1Ba2Cu3O6.37,20.46
Sr0.9La0.1Cu1O2,20.4
Y1Ba2Cu3.84Fe0.16O8,20.4
Ru1Sr2Gd1Cu2O8,20.4
Nd0.85Pr0.15Ba2Cu3O7,20.4
Yb0.7Ca0.3Ba1.6Sr0.4Cu3O6.78,20.4
Ce1Fe1As1F0.16O0.84,20.4
Y0.8Ca0.2Ba2Cu3O6.3,20.4
Ca0.8La0.2Fe1As1H1,20.4