formula,Tc
Hg1Ba2Cu1O4.052,82.000
Hg1Ba2Cu0.97Zn0.03O4.073,82.000
Y0.3La0.7Ba2Cu3O6.98,82.000
Y0.8Ca0.2Ba2Cu3O6.84,82.000
Ba2Ca1Cu2F2O4,82.000
Y0.97Ca0.03Ba2Cu4O8,81.900
Y1Ba2Cu4O8,81.900
Y1Ba2Cu3O6.8,81.800
Y0.9Ca0.1Ba2Cu3O7,81.800
Y1Ba1.9La0.1Cu3O6.9,81.800
Y1Ba1.8La0.2Cu3O7,81.800
Y0.85Pr0.15Ba2Cu3O6.97,81.800
Y0.9Ca0.1Ba2Cu3O6.98,81.800
Y1Ba2Cu4O8,81.800
Gd0.85Hf0.15Ba2Cu3O6.84,81.800
Y0.77Ca0.08Pr0.15Ba2Cu3O6.95,81.700
Bi2Sr2Ca1Cu2O8,81.700
Y0.85Pr0.15Ba2Cu3O6.95,81.600
Tl1Ba2Ca1Cu2O7,81.600
Y1Ba2Cu4O8,81.600
Y1Ba2Cu4O8,81.500
Y1Ba2Cu2.9Ni0.1O7,81.500
Ge0.5Cu3Sr2Ca1.9Y0.1O9.3,81.500
Y1Cu2.97Zn0.03O7,81.500
Y0.9Ca0.1Ba2Cu3O6.96,81.500
Bi2Sr2Ca0.7Y0.3Cu2O8,81.400
Y0.8Ca0.1Pr0.1Ba2Cu3O6.95,81.400
Y1Ba2Cu4O8.045,81.400
Nd0.9Ca0.05Pr0.05Ba2Cu3O6.95,81.400
Y1Ba2Cu4O8,81.400
Y1Ba1.6Sr0.4Cu4O8,81.400
Y1Ba2Cu4O8,81.300
Gd0.6Ca0.25Hf0.15Ba2Cu3O7,81.300
Bi2Sr2Ca1Cu2O8.12,81.300
Bi1.7Pb0.3Sr2Ca0.94Nd0.06Cu2O8.1,81.270
Tm0.97Ca0.03Ba2Cu4O8,81.200
Y1Ba1.4Sr0.6Cu4O8,81.200
Bi2Sr1.4Ca1.6Cu2O8.2,81.100
Y0.9Ba0.1Cu1O4,81.000
Y1Ba2Cu2.902Pt0.098O6.4,81.000
Y0.9Pr0.1Ba2Cu3O6.91,81.000
Ho0.95Ca0.05Ba2Cu4O8,81.000
Y1Ba2Cu4O8,81.000
Bi4Sr4Ca3Cu4O16.29,81.000
Bi4Sr3Ca2.5Tm0.5Cu4O16.52,81.000
Tl1Sr1.3Nd0.7Ca1Cu2O7,81.000
Y1Ba2Cu2.97Zn0.03O6.9,81.000
Tl2Ba2Cu1O6.01,81.000
Gd1Ba2Cu3O6.8,81.000
Bi2Sr2Ca1Cu2O8,81.000
Zn1Tl0.78Ba1Cu1O4.5,81.000
Eu1.1Ba1.9Cu3O7.07,81.000
Y0.4Cu3Ba1.4La0.6O6.95,81.000
Y0.8Ca0.2Ba2Cu3O6.64,81.000
Y1Ba1Sr1Cu3O6.91,81.000
Ge0.4Cu3Sr2Ca1.8Y0.2O9.3,81.000
Er0.76Ca0.24Ba1.8Sr0.2Cu2.76Co0.24O6.91,81.000
Bi2Sr2Ca1Cu2O8.28,81.000
Ba1.6Sr0.4Yb1Cu3O6.8,81.000
Cu2.5Sr2Ca1Cr0.5O7.5,81.000
Eu1Ba1Sr0.9Ca0.1Cu3O6.95,81.000
Bi1.8Pb0.2Sr2Ca1Cu2O8,81.000
Y1Ba2Cu2.88Co0.12O7,81.000
Y1Ba2Cu2.9Ga0.1O6.8,81.000
Y1Ba2Cu2.97Zn0.03O6.95,81.000
Hg1Ba2Cu1O4.3,81.000
Yb1Ba1.7Sr0.3Cu3O6.9,81.000
Yb0.95Pr0.05Ba1.7Sr0.3Cu3O6.91,81.000
Yb0.9Pr0.1Ba1.7Sr0.3Cu3O6.9,81.000
Dy1Ba2Cu2.94Ni0.06O6.72,81.000
Sm1Ba2Cu2.98Zn0.02O6.82,81.000
Dy1Ba2Cu2.98Zn0.02O6.87,81.000
Pr1Ba2Cu3O6.8,81.000
Bi2Sr2Ca1Cu2O8.14,81.000
Y1Ba2Cu2.9Ni0.1O6.92,81.000
Er1Ba2Cu2.97Zn0.03O6.93,81.000
Y1Ba1.36Sr0.64Cu4O8,81.000
Bi1.7Pb0.3Sr2Ca1Cu2O8,81.000
Y0.2La0.8Ba2Cu3O7,81.000
Y0.9Sc0.1Ba2Cu4O8,81.000
Ba2Ca2Cu3F1.8O6.2,81.000
Er0.65Ca0.2Hf0.15Ba2Cu3O6.83,80.900
Y0.8Ca0.2Ba2Cu3O6.53,80.900
Bi1.7Pb0.3Sr2Ca0.98Nd0.02Cu2O8.05,80.890
Y1Ba2Cu3H0.92O6.91,80.800
Y0.9Ca0.1Ba2Cu4O8,80.800
Y1Ba1Sr1Cu3O6.93,80.800
Y1Ba1.65Sr0.35Cu4O8,80.800
Y1Ba2Cu3O6.72,80.700
Gd0.55Ca0.3Mo0.15Ba2Cu3O6.626,80.700
Y1Ba2Cu4O8,80.600
Dy1Ba1.6Sr0.4Cu3O6.89,80.600
Y0.85Ca0.15Ba2Cu3O6.58,80.600
Gd0.8Ca0.05Hf0.15Ba2Cu3O6.86,80.600
Y0.85Ca0.15Ba2Cu2.75Co0.25O7.01,80.600
Y1Ba1.8La0.2Cu3O7.013,80.500
Y1Ba2Cu3O6.6,80.500
Y1Ba2Cu2.9Fe0.1O7,80.500
Y1Ba2Cu3O6.861,80.500
Y1Ba2Cu3O6.894,80.500
Bi1.7Pb0.3Sr2Ca1Cu2O8.05,80.500
Nd0.5Ca0.5Ba0.6La0.4Cu3O6.77,80.500
Y1Ba0.74Sr1.26Cu3O6.98,80.500
Y1Ba1.4Sr0.6Cu4O8,80.500
Y1Ba2Cu4O8,80.500
Y1Ba1.6Sr0.4Cu4O8,80.500
Y1Ba1.7La0.3Cu3O7.1,80.500
La3Ca1Ba3Cu7O16.678,80.500
Y1Ba2Cu4O8,80.400
Pb2Sr2Ho0.5Ca0.5Cu2.94Pt0.06O8,80.400
Yb0.7Ca0.3Ba1.6Sr0.4Cu3O6.56,80.300
Y1Ba1Sr1Cu3O6.899,80.200
Yb1Ba1.6Sr0.4Cu3O6.88,80.200
Y1Ba2Cu4O8,80.200
Y1Ba2Cu2.979Zn0.021O7,80.200
Er1Ba2Cu4O8,80.100
Y1Ba2Cu4O8,80.100
Y1Ba2Cu4O8,80.050
La1.2Ba1.8Cu3O6.98,80.000
Y1Ba2Cu3O6.9,80.000
Bi2Sr2Ca6Cu8O19,80.000
Bi2.15Sr1.68Ca1.17Cu2O8,80.000
Bi4Sr3Ca2.9Tm0.1Cu4O16.36,80.000
Y1Ba2Cu4O7.986,80.000
Nd1.2Ba1.8Cu3O6.96,80.000
Bi2Sr2Ca1Cu2O8,80.000
Y1Ba2Cu4O8.043,80.000
Y1Ba2Cu4O8,80.000
Tl1Ba2Ca1Cu2O7,80.000
Bi2Sr2Ca0.9Gd0.1Cu2O8,80.000
Dy1Ba1Sr1Cu3O6.94,80.000
Bi8Sr6Ca6Cu9O33.964,80.000
Ca1La1Ba1Cu3O7,80.000
Yb1Ba1.8Sr0.2Cu4O8,80.000
Yb1Ba1.6Sr0.4Cu4O8,80.000
Yb1Ba1.4Sr0.6Cu4O8,80.000
Yb1Ba1.2Sr0.8Cu4O8,80.000
Tl0.75Pb0.25Ca1Sr2Cu2O7,80.000
Bi4Ca3Sr3Cu4O16.32,80.000
Sm1Ba1Sr1Cu3O6.94,80.000
Eu1Ba1Sr1Cu3O6.94,80.000
Y0.8Pr0.1Ca0.1Ba2Cu4O8,80.000
Bi2Sr2Ca0.95Ce0.05Cu2O8,80.000
Y1Ba2.2Cu4O8,80.000
Y0.95Ba1.95Ca0.1Cu4O8,80.000
Gd0.95Ba1.95Ca0.1Cu4O8,80.000
Tm1Ba2Cu4O8,80.000
Tl1Ba1Sr1Ca1Cu2O7,80.000
Y1Ba2Cu3O6.73,80.000
Y0.8Ca0.2Ba1.5La0.5Cu3O7.11,80.000
La1Ba1.75Ca0.25Cu3O6.951,80.000
La2.57Ca0.86Ba2.57Cu6O14.2,80.000
Y0.8Pr0.15Ca0.05Ba2Cu3O6.82,80.000
Y1Ba2Cu1O8,80.000
Hg1Ba2Cu1O4.055,80.000
Er0.97Ca0.03Ba2Cu4O8,80.000
Y1Ba2Cu2.97Zn0.03O6.93,80.000
Lu0.7Ca0.3Ba2Cu3O6.62,80.000
La2.5Gd0.5Ca1Ba3Cu7O16.359,80.000
La2.3Gd0.6Ca1.2Ba2.9Cu7O16.543,80.000
Ba1.6Sr0.4Yb0.95Ca0.05Cu3O6.8,80.000
Ba1.6Sr0.4Yb0.95Ca0.05Cu3O6.76,80.000
Y2Ba4Cu7O15,80.000
Y0.9Ca0.1Ba2Cu3O6.66,80.000
La2.5Y0.5Ca1Ba3Cu7O16.552,80.000
Cu3P0.5Sr2Ca1.8Y0.2O9.55,80.000
La2.5Y0.5Ca1Ba3Cu7Fe7O16.574,80.000
Ca0.4La0.65Ba1.35Cu3O7.15,80.000
Sr3.1Ca5.9Bi0.4Y0.3Pb0.3Cu16.7O29,80.000
Bi1.8Pb0.2Sr2Ca1Cu2O8,80.000
Tl1Sr1.5Tb0.5Ca1Cu2O7,80.000
Tl1Sr1.5Dy0.5Ca1Cu2O7,80.000
Tl1Sr1.5Ho0.5Ca1Cu2O7,80.000
La2.5Y0.5Ca1Ba3Cu7O16.574,80.000
Er1Ba2Cu4O8,80.000
Hg1Ba2Cu1O4.28,80.000
Y1Ba2Cu3O6.77,80.000
Hg1Ba2Cu1O4.21,80.000
Yb0.85Pr0.15Ba1.7Sr0.3Cu3O6.91,80.000
Y1Ba2Cu2.985Zn0.015O7,80.000
Y1Ba2Cu2.5Fe0.5O7.413,80.000
Y1Ba0.75Sr1.25Cu3O6.91,80.000
Bi2Sr2Ca1Cu2O8.24,80.000
Y1Ba2Cu3O7,80.000
Y1Ba1.7La0.3Cu3O7.1,80.000
Y1Ba2Cu3O6.7,80.000
Y1Ba2Cu2.9Ni0.1O6.92,80.000
Y1Ba2Cu2.95Ni0.05O6.93,80.000
Y1Ba2Cu2.94Zn0.06O6.9,80.000
Hg1Ba2Cu1O4,80.000
Bi2Sr2Ca1Cu2O8.28,80.000
La2.5Gd0.5Ca1Ba3Cu7O16.539,80.000
Bi1.7Pb0.3Sr2Ca1Cu2O8,80.000
Bi0.6Pb0.2S0.2Sr2Ca0.7Nd0.3Cu2O6.95,80.000
Y1Ba2Cu2.5Fe0.5O7.35,80.000
Y1Ba2Cu2.97Zn0.03O6.98,80.000
Fe0.5Ba2Y1Cu2.5O7.41,80.000
H1Cl3C61,80.000
Y1Ba2Cu3O8,80.000
Fe1Se1,80.000
Nb0.44Ti0.56,8.990
Ti0.64Nb0.34Ta0.02,8.990
Hf0.4Zr0.6V2,8.980
Ta0.2W0.8C1,8.960
La3Tl1,8.950
Ba1Fe1.28Ru0.72As2,8.950
Ca1Fe0.74Co0.26As1H1,8.950
Ca0.8La0.2Fe0.98Co0.02As2,8.950
Na1Fe1As1,8.940
Y1Ir2Rh2B4,8.920
C0.002N0.937Ta1,8.910
Fe1Se1,8.910
Fe1Se0.9S0.1,8.910
Fe1Se0.84S0.16,8.910
La1.85Sr0.15Cu0.982Co0.018O4,8.900
Bi2Sr2Cu1O6,8.900
Ca2Nb1O4,8.900
La1.875Ba0.125Cu1O4,8.900
Y1Ba2Cu3O6.35,8.900
Pu1Rh1Ga5,8.900
La1Os2,8.900
C0.64Mo1,8.900
Ag1.2Mo4.8S6,8.900
B5Mo1.9Zr0.1,8.900
Bi1Pb1Sb1,8.900
C1Mo0.85Ta0.15,8.900
In0.5La3Tl0.5,8.900
N0.8Nb1,8.900
Ta0.05V2Zr0.95,8.900
Nb1Se2,8.900
Nb3Rh0.05Pt0.95,8.900
Hf1V2,8.900
V0.75Ge0.212Al0.037,8.900
Mo0.65Pt0.05Re0.3,8.900
Ti0.64Nb0.32Ta0.04,8.900
La3In0.5Tl0.5,8.900
Lu1Ru1B2,8.900
Nb0.18Re0.82,8.900
Mo5P0.9B2.1,8.900
Nb0.991Ta0.009,8.870
Nb0.722Ga0.247Mn0.031,8.870
Nb0.96Ta0.04,8.870
La3Tl1,8.860
Nb0.4Zr0.6,8.860
Lu0.85Er0.15Ru1B2,8.860
Er0.97Tm0.15Rh4B4,8.860
V2Zr1,8.850
Hf1V2,8.850
Hf0.2Zr0.8V2,8.850
Fe1Se0.736Sb0.184,8.850
Hf1N1,8.830
Mo0.95Hf0.05C0.65,8.810
Ho0.75Lu0.25Ni2B2C1,8.810
Nb1,8.810
La1Nd0.85Ce0.15Cu1O4,8.800
K1.1Bi1O3,8.800
La1.9Sr0.1Cu0.99Zn0.01O4,8.800
B5Mo1.8Sc0.2,8.800
Bi0.65Pb0.35,8.800
Ir1Mo1,8.800
Ir1Mo3,8.800
Mo0.85Pt0.15,8.800
Nb0.11Re0.78Ta0.11,8.800
Nb1Se2,8.800
V2Zr1,8.800
V2.58Zr0.42Si1,8.800
Bi0.56Pb0.44,8.800
Nb0.500Zr0.400Mo0.100,8.800
Lu1Ni0.91Co0.18B2C1,8.800
Zr2Rh1H0.28,8.800
V2Hf0.8Ti0.2,8.800
Er1Ni1.98Fe0.02B2C1,8.800
V3Ge0.9Al0.1,8.800
Tc2Y1,8.800
Fe1Se1,8.800
Fe0.98Se0.15Te0.9,8.800
Pr1.87Ce0.13Cu1O4,8.800
La1Fe1As0.2P0.8F0.1O0.9,8.800
Nb1,8.800
Fe1Se0.94,8.790
Sr0.57Eu0.43Fe1.76Co0.24As2,8.780
Ca10Pt3.42Fe9.58As18,8.780
Ho0.8Lu0.2Ni2B2C1,8.770
Ho0.9Lu0.1Ni2B2C1,8.770
Ho0.95Lu0.05Ni2B2C1,8.770
Lu0.9Er0.1Ru1B2,8.770
Ba1Fe1.7Zn0.08Co0.22As2,8.770
Ir0.64Rh0.3Se2,8.770
Nb0.984Ta0.016,8.760
Nb0.94Ta0.06,8.760
Er1Rh4B4,8.760
Pr1Fe0.95Co0.05As1O1,8.760
Nb0.18Re0.82,8.750
Fe1Se1S0,8.750
Y0.8Pr0.2Ni2B2C1,8.740
Ti0.64Nb0.28Ta0.08,8.740
Sc0.75Th0.25Rh4B4,8.740
Y0.12Er0.88Rh4B4,8.740
Ti0.64Ta0.075Nb0.285,8.730
Ho0.7Lu0.3Ni2B2C1,8.720
Ho0.85Lu0.15Ni2B2C1,8.720
Ca1Fe0.85Ni0.15As1F1,8.720
Lu0.9Tm0.1Ru1B2,8.720
Ba0.37K0.63Bi1O2.952,8.710
Mo0.333Re0.043P0.161B0.462,8.710
Pr1Fe1As0.2P0.8F0.1O0.9,8.710
La0.75Rh4P12,8.710
Nd1.85Ce0.15Cu0.98Zn0.02O4,8.700
K0.8Bi1.2O3,8.700
K0.75Ca0.25Bi1O3,8.700
Ba1Pb0.85Bi0.15O3,8.700
Nb3Pt1,8.700
Bi0.35Pb0.65,8.700
Ce0.16La0.84,8.700
Ir0.29Mo0.41Nb0.3,8.700
Mo0.6Ru0.4,8.700
Nb0.38Zr0.62,8.700
V3Si0.6Ge0.4,8.700
C1Mo0.8Ta0.2,8.700
Y1Ni1.94Ru0.06B2C1,8.700
Tm1Ni1.97Co0.06B2C1,8.700
Nb0.8Ga0.14Ni0.06,8.700
Y1Ni1.8Mn0.2B2C1,8.700
Er1Rh4B4,8.700
Ca1Rh1.2Sn4.5,8.700
Pb0.5Yb0.5Mo6Se8,8.700
Bi1,8.700
Ho1Ni2B2C1,8.700
V3Ga0.4Si0.6,8.700
Pu1Rh1Ga5,8.700
Tc0.875Ti0.125,8.700
Ca3Rh4Sn13,8.700
Sr1Fe1.85Pd0.15As2,8.700
Ba1Fe1.918Co0.044Cu0.038As2,8.700
Zr0.96V0.04B2,8.700
Mo5P1B2,8.700
Nb5Re24,8.700
Ga41Mo6V2,8.700
Fe1Se0.87S0.13,8.700
Ba1Fe1.82Ni0.18As2,8.700
Fe1Se1,8.700
Fe1Se0.88,8.690
Bi0.525Pb0.32Sn0.155,8.680
Y5Os4Ge10,8.680
Bi1,8.680
Ho1Ni2B2C1,8.670
Ta0.6Mo0.4C1,8.670
Sr1Fe1.85Ni0.15As2,8.660
Y0.9Gd0.1Rh4B4,8.660
Er1Rh4B4,8.660
V1N1,8.650
Sr1Fe1.84Ni0.16As2,8.650
La1Bi1S2F0.5O0.5,8.650
Re0.77Mo0.23,8.650
Na1Fe1As1,8.640
Bi0.3Pb0.7,8.630
Y0.8Pr0.2Ni2B2C1,8.620
Lu1Rh4B4,8.610
Eu1Bi1S2F1,8.610
La1.82Ba0.18Cu0.99Ga0.01O4,8.600
Pu1Rh1Ga5,8.600
Hf1V2,8.600
Be22Mo0.3Re0.7,8.600
Be22Mo0.4Re0.6,8.600
Be0.8Os0.2,8.600
N1Nb2,8.600
Nb5Sb4,8.600
Nb0.35Ti0.6Zr0.05,8.600
V0.7Zr0.3,8.600
La3Se4,8.600
V3Si0.5Ga0.5,8.600
La3Sc4,8.600
Nb0.185Ti0.719Ta0.095,8.600
Ho1Ni2B2C1,8.600
Nb0.8Ga0.14Cr0.06,8.600
Yb1.2Mo6S8,8.600
Yb1Rh1.4Sn4.6,8.600
V0.75Ge0.225Al0.025,8.600
Nb0.25Zr0.75,8.600
Ge1V3,8.600
Nb3Si1,8.600
Yb3Rh4Sn13,8.600
Fe1Te0.8S0.2,8.600
Cu0.01Fe0.99Se0.85,8.600
Ba1Fe2As1.6P0.4,8.600
Bi2Te1,8.600
Fe0.995V0.005Se1,8.600
Fe1Te0.8Se0.2,8.600
Fe0.049Ga0.197V0.754,8.590
Mo0.02Nb0.98,8.580
Mg1C1Ni2.9Fe0.1,8.580
V0.705Si0.213Ge0.082,8.580
La1Fe0.975Co0.025As1O1,8.580
La1.885Sr0.115Cu0.99Zn0.01O4,8.560
Pd0.04Rh0.29Zr0.67,8.560
Ho1Ni2B2C1,8.560
Ti0.64Nb0.26Ta0.1,8.560
Zr0.196V0.703Nb0.100,8.560
Nb5Ir1.4Pt1.6O1,8.560
Nb0.957Ta0.043,8.550
Er1Rh4B4,8.550
V2Zr1,8.540
Sc5Rh4Si10,8.540
La1Pt4Ge12,8.540
Ho1Ni2B2C1,8.530
Ba1Fe1.772Co0.228As2,8.520
C60K3,8.500
Sm1.295Gd0.555Ce0.15Cu1O4,8.500
La1.85Ce0.15Cu1O4,8.500
Pu1Rh1Ga5,8.500
Y1Ru4P12,8.500
Sc5Ir4Si10,8.500
Bi0.5Pb0.25Sn0.25,8.500
Fe0.03Nb0.25Ti0.72,8.500
Ga1,8.500
N5Nb4,8.500
N1V1,8.500
Nb0.5Ti0.2V0.3,8.500
V2Zr1,8.500
Nb0.14Re0.86,8.500
Bi0.5Pb0.25Sn0.26,8.500
Bi0.5Pb0.31Sn0.19,8.500
C0.1N0.9Nb1,8.500
C1Mo0.75Ta0.25,8.500
Cu3.2Mo6S8,8.500
Ho1Ni2B2C1,8.500
Y1Ni1.86Co0.14B2C1,8.500
N0.93H2.79Na1Rb2C60,8.500
La0.9Nd0.1Pt2.1B2.4C1.2,8.500
Na2Cs1C60,8.500
Mo0.82Re0.18,8.500
La2.995Gd0.005In1,8.500
Mo0.6Pt0.1Re0.3,8.500
Nb0.969O0.031,8.500
Sc1C0.75Ge0.02,8.500
Ta0.8Mo0.2C1,8.500
Li0.33V2O5,8.500
Er1Ni1.94Fe0.06B2C1,8.500
Fe1.01Se1,8.500
Fe1Se1,8.500
Al0.1Fe0.9Se0.85,8.500
Al0.25Fe0.75Se0.85,8.500
Fe1.14Te0.91S0.09,8.500
Fe0.95Se0.25Te0.75,8.500
Nb0.18Re0.82,8.500
Re0.2Mo0.8,8.500
Fe0.99V0.01Se1,8.500
Fe0.98V0.02Se1,8.500
Ho1Ni2B2C1,8.480
Fe1Se0.5Te0.5,8.470
Sc5Ir4Si10,8.460
Ga1,8.450
H15Th4,8.450
Yb1Mo6S8,8.450
Sr0.5Eu0.5Fe1.76Co0.24As2,8.450
Fe1.02Te0.5Se0.1S0.4,8.450
Lu0.5Ho0.5Rh4B4,8.430
Ba1Fe1.64Ru0.36As2,8.430
Hf1V2H0.4,8.420
Nb0.938Ta0.062,8.420
Na1Fe1Ni0.004As1,8.420
Nd1.85Ce0.15Cu0.994Ni0.006O4,8.400
Na2Rb0.5Cs0.5C60,8.400
Ba0.19K0.81Bi1O3,8.400
Pu0.9U0.1Co1Ga5,8.400
C60Ca5,8.400
Ba8Si46,8.400
Si1,8.400
As1Pb1,8.400
B5Hf0.2Mo1.8,8.400
Bi0.45Pb0.55,8.400
Bi0.5Pb0.5,8.400
Mo0.42Re0.58,8.400
V2.781Co0.219Ga1,8.400
Nb2.85V0.15Au1,8.400
Nb0.160Ti0.807Ta0.033,8.400
Th1Ni2B2C1,8.400
Mg1C1.5Ni3,8.400
Ho1Ni2B2C1,8.400
Pb1Mo6S7Se1,8.400
Nb0.9Ta0.1,8.400
Re0.71V0.29,8.400
Zr1Ru1P0.95B0.05,8.400
Bi4Te3,8.400
Sc5Ir4Si10,8.400
Sr1Pt3P1,8.400
Bi1,8.400
Fe1.07Te0.88S0.12,8.400
Ir0.3Rh0.64Se2,8.390
Ir1Mo3,8.350
Sn1Ta3,8.350
H3.63Th1,8.350
Sr1Pt3P1,8.350
La1.35Nd0.4Sr0.25Cu1O4,8.330
Zr0.96V0.04B2,8.330
Ti0.64Nb0.24Ta0.12,8.320
N1V1,8.320
Hf0.5Nb0.5,8.310
Y1Ba2Cu3O6.36,8.300
La1.85Sr0.15Cu0.98Ga0.02O4,8.300
La1.84Ba0.16Cu0.99Ga0.01O4,8.300
La1.48Nd0.4Sr0.12Cu1O4,8.300
Li1.16Ti1.84O4,8.300
Y0.5Th0.5Ni1C2,8.300
Ag1Mo4S5,8.300
Al0.01Nb0.97O0.02,8.300
B5Mo1.7Nb0.3,8.300
Be22Mo0.6Re0.4,8.300
Bi0.26Pb0.74,8.300
C1.3La1,8.300
Nb3Si0.5Sn0.5,8.300
Re0.73W0.27,8.300
Tc0.7V0.3,8.300
V0.6Zr0.4,8.300
Nb2.1Mo0.9Al1,8.300
Nb0.247Zr0.753,8.300
Na2Cs0.88C60,8.300
Mg1B1.4Be0.6,8.300
Sc5Ir4Si10,8.300
Tm1Th3.4Ru0.6B4,8.300
Er0.85Tb0.15Ni2B2C1,8.300
Nb0.25Zr0.75,8.300
Bi1,8.300
Fe1Se0.94,8.300
Mo7Re13B1,8.300
C1,8.300
Ca3Rh4Sn13,8.300
Ba1Fe1.738Rh0.262As2,8.300
Fe1Se0.828Sb0.092,8.300
Sc5Ir4Si10,8.290
Li2Pd3B1,8.290
La1Pt4Ge12,8.290
Ta0.685Ti0.315,8.280
Lu1Rh4B4,8.280
Mo0.815Re0.185,8.270
Sc5Rh4Si10,8.270
La1Pt4Ge12,8.270
Fe1Se0.85,8.260
B1Nb1,8.250
La3S4,8.250
Y2I1.5Cl0.5C2,8.250
Mo0.02Nb0.98,8.240
Sc5Ir4Si10,8.230
Er0.98Gd0.02Rh4B4,8.220
Er0.79Ho0.21Rh4B4,8.220
Pr0.1La0.9Pt4Ge12,8.220
Fe1Se0.98,8.210
Ba2Ti2Fe1.92Cr0.08As4O1,8.210
La1.88Ba0.12Cu0.99Ga0.01O4,8.200
La1.83Sr0.17Cu0.96Ni0.04O4,8.200
La1.69Nd0.2Ba0.11Cu1O4,8.200
Li2Pd3B1,8.200
Ba7.61Si46,8.200
Bi0.5Cd0.125Pb0.25Sn0.125,8.200
C3Er0.2Th1.8,8.200
C3Er0.4Th1.6,8.200
Nb3Sn0.73Ge0.27,8.200
Nb0.748Sn0.070Al0.068Ge0.114,8.200
Bi0.5Cd0.25Pb0.25Sn0.12,8.200
Y1Ni1.9Fe0.1B2C1,8.200
Er1Ni1.98Co0.04B2C1,8.200
Si1,8.200
Ca3Rh4Sn13,8.200
Ga1,8.200
Ho0.9Dy0.1Ni2B2C1,8.200
Mg1C1Ni3,8.200
La2.98Ce0.02In1,8.200
Th1.8Er0.2C3,8.200
Th1.6Er0.4C3,8.200
Ga1Nb3,8.200
Sc1,8.200
Fe1Te0.93Se0.07,8.200
Zr0.95V0.05B2,8.200
Fe1Se1,8.200
La1Pt4Ge12,8.200
Fe0.95Co0.05Se0.3Te0.7,8.200
Al2C1Mo3,8.200
Bi2Se3,8.200
Nb1Si1As1,8.200
La1Fe0.918Zn0.082As1F0.28O0.68,8.200
Eu1Bi1S2F1,8.200
Eu1Sr2Bi2S4F4,8.200
Fe1Se0.84S0.16,8.200
Li2Pd3B1,8.190
Ti0.64Nb0.18Ta0.18,8.180
Ba1Fe1.55Ru0.45As2,8.180
Ba2Ti2Fe1.92Cr0.08As4O1,8.160
Bi0.2Pb0.8,8.150
Nb0.87Ta0.13,8.150
Ho0.9Dy0.1Ni2B2C1,8.150
V0.702Si0.212Ga0.086,8.150
Mo0.816Zr0.034B2,8.140
B2Mg1,8.130
Pr1Pt4Ge12,8.130
La3S4,8.120
Fe1Se0.779Te0.041,8.120
Mo0.845Zr0.035B2,8.110
Gd0.71Pr1.14Ce0.15Cu1O4,8.100
La1.75Sr0.25Cu0.98Ni0.02O4,8.100
C3Er0.6Th1.4,8.100
C0.55W0.45,8.100
Re0.5W0.5,8.100
V3Si0.25Ga0.75,8.100
V2.49Mn0.42Si1,8.100
Y0.7Tb0.3Ni2B2C1,8.100
Nb0.8Ga0.13Ni0.07,8.100
Nb0.740Ga0.173Co0.087,8.100
Y0.8Gd0.2Ni2B2C1,8.100
Ba8Si46,8.100
Nb0.949O0.051,8.100
Y0.8Sc0.2Ru1B2,8.100
Th1.4Er0.6C3,8.100
La3S4,8.100
B2.5Mo1,8.100
Ga1V3H0.37,8.100
Sr1Fe1.88Ni0.12As2,8.100
Ba1Fe1.73Co0.27As2,8.100
Mo7Re13C1,8.100
Zr1Ru1P0.9B0.1,8.100
La2Pt3Ge5,8.100
Au0.15Sb0.85,8.100
Ge1Sb2Te4,8.100
Mo1Te2,8.100
Fe1Se0.82S0.18,8.100
Ir0.76Rh0.18Se2,8.090
Ca3Ir4Sn13,8.090
Nb0.85Ta0.15,8.080
Ba8Si46,8.070
La0.69Rh4P12,8.070
Pr0.2La0.8Pt4Ge12,8.070
La3S4,8.060
Er0.97Gd0.03Rh4B4,8.060
Er0.73Ho0.27Rh4B4,8.060
La0.8Th0.2Pt4Ge12,8.060
Bi0.625Pb0.375,8.050
La3S4,8.050
B2Nb0.6,8.040
Ho1Ni2B2C1,8.040
Bi0.575Pb0.425,8.030
Pr0.3La0.7Pt4Ge12,8.020
La1.737Sr0.263Cu1O4,8.000
Eu1.85Ce0.15Cu1O4,8.000
Bi2Sr2Cu1O6,8.000
La1.875Ba0.075Sr0.05Cu1O4,8.000
Y0.92Ca0.08Sr2Cu2.5Fe0.5O6.92,8.000
La1.8Sr0.2Cu0.65Ni0.35O4,8.000
Bi2Sr1.3Sm0.7Cu1O6.405,8.000
C60Sm3,8.000
Cu2Cr0.25Sr2Y1.3Ce0.7O8.87,8.000
Nd1.85Ce0.15Cu0.993Ni0.007O4,8.000
Nd1.85Ce0.15Cu0.95Zn0.05O4,8.000
Ca0.1Ba1.65La1.25Cu3O6.98,8.000
Bi2Sr2Cu1O6.36,8.000
Nd1.48Tb0.38Ce0.15Cu1O4,8.000
Ca14Cu24O40.93,8.000
La1.85Sr0.15Cu0.978Zn0.022O4,8.000
La1.48Nd0.4Sr0.12Cu1O4,8.000
Na0.33V2O5,8.000
Fe0.5Ba2Sm1Cu2.5O7.54,8.000
Ca1.9Na0.1Cu1Cl2O2,8.000
Ba8Si46,8.000
Li2Pd3B1,8.000
B5Mo1.9Y0.1,8.000
C0.64Mo1,8.000
Co0.6Rh0.4Zr2,8.000
Ge1Ta3,8.000
In1Nb3,8.000
Ir0.25Zr0.75,8.000
Mo0.05Nb0.95,8.000
Nb0.2Zr0.8,8.000
Tc1,8.000
C1Nb1,8.000
Nb0.148V0.108Ti0.745,8.000
Cu2.6Mo6S8,8.000
Ho0.9Dy0.1Ni2B2C1,8.000
Ho1Ni2B2C1,8.000
N1H3Na1K2C60,8.000
Na2Rb0.5Cs0.5C60,8.000
Mg1C1Ni3,8.000
Mg1C1Ni2.8Fe0.2,8.000
Ba7.76Si46,8.000
La1Rh4Si2B1,8.000
Mo0.98Nb0.02Ga4,8.000
Mo0.96Nb0.04Ga4,8.000
Zr1Os1As1,8.000
V2Zr1,8.000
Ge2Zr1,8.000
Ga4Mo1,8.000
La1.94Sr0.06Cu1O4,8.000
Fe1Se0.72,8.000
Fe1Se0.88,8.000
Fe1.01Se1,8.000
Fe1Se0.98,8.000
Ba1Fe1.79Zn0.1Co0.11As2,8.000
Au0.1Sb0.9,8.000
Ba1Fe1.84Co0.13Mn0.03As2,8.000
Sc5Ir4Si10,8.000
Li0.15Sr2Cu1Br2O2,8.000
La1Fe1P1F0.05O0.95,8.000
Ba0.779Na0.221Fe2As2,8.000
Ba0.83K0.17Fe2As2,8.000
La1Pt4Ge12,8.000
Ba1Fe1.746Co0.254As2,8.000
Fe1Se0.4Te0.6,8.000
Yb0.8Pr0.2Ba2Cu3O6.88,79.900
La1Ba1.5Ca0.5Cu3O6.96,79.900
La1Ba1.25Ca0.75Cu3O6.958,79.900
Er0.85Hf0.15Ba2Cu3O6.813,79.900
Tm1Ba2Cu4O8,79.900
Y1Ba2Cu2.88Ga0.12O7,79.890
Bi4Sr3Ca1.6Y1.4Cu4O16,79.800
Bi2Sr1.8Ca1.2Cu2O8,79.800
Y1Ba1.8Sr0.2Cu4O8,79.800
Tm1Ba2Cu3O6.8,79.800
Y1Ba2Cu4O8,79.800
La1.25Ba1.35Ca0.4Cu3O7.16,79.800
Y1Ba2Cu4O8,79.700
Y1Ba1.972Ca0.028Cu4O8,79.700
Y0.75Ca0.1Pr0.15Ba2Cu3O6.95,79.600
Y1Ba2Cu4O8,79.600
Tm1Ba2Cu4O8,79.600
Y1Ba2Cu2.97Zn0.03O7,79.500
Bi1Pb1Sr2Y0.4Ca0.6Cu2O8,79.500
Dy1Ba1Sr1Cu3O6.89,79.500
Er0.85Ca0.15Ba2Cu3O6.93,79.500
Bi2Sr1.8Ca1.2Cu2O8,79.500
Y1Ba2Cu3O6.74,79.500
Gd0.8Hf0.2Ba2Cu3O6.79,79.500
Y0.975Ca0.025Ba2Cu4O8,79.500
Y0.7Ca0.3Ba2Cu4O8,79.500
Y1Ba1.46Sr0.54Cu4O8,79.500
Eu0.9Pr0.1Ba2Cu3O6.95,79.450
Y1Ba2Cu2.8Ni0.2O7,79.400
Y0.8Pr0.2Ba1Sr1Cu3O6.9,79.400
Y0.99Ca0.01Ba2Cu4O8,79.400
Sm1Ba2Cu3O6.95,79.400
Bi4Sr3Ca1.2Y1.8Cu4O16,79.300
Y1Ba2Cu3O6.65,79.300
Er0.99Ca0.01Ba2Cu4O8,79.300
Y0.9Ca0.1Ba2Cu3O6.5,79.300
Y1Ba2Cu2.82Ga0.18O7,79.240
Y1Ba2Cu4O8,79.200
La1.25Ca0.45Ba1.3Cu3O7.135,79.200
La1.25Ca0.5Ba1.25Cu3O7.137,79.200
Ho1Ba2Cu4O8,79.200
Y0.85Pr0.15Ba2Cu3O6.98,79.200
Tm0.99Ca0.01Ba2Cu4O8,79.200
Hg0.92Ba2.05Cu1.03O4.079,79.200
Y1Ba2Cu4O7.986,79.200
Y1Ba2Cu2.97Zn0.03O6.97,79.100
Y1Ba2Cu3O6.8,79.000
Y1Ba1.6Sr0.4Cu4O7.9,79.000
Y1Ba1.2Sr0.8Cu4O7.9,79.000
Y0.9Ca0.1Ba1.9La0.1Cu4O7.8,79.000
Bi1.6Pb0.4Sr1.6Ca1Nd0.4Cu2O8.17,79.000
Bi2Sr2Ca0.7Y0.3Cu2I1O8,79.000
Pb2Sr2Y0.61Ca0.39Cu3O8,79.000
Y1Ba1Sr1Cu3O6.94,79.000
Ho1Ba1Sr1Cu3O6.94,79.000
Y1Ba2Cu4O8,79.000
Y1Ba2Cu2.88Fe0.12O7,79.000
La2.5Ca1Ba2.5Cu6O14.146,79.000
La2.4Ca1.2Ba2.4Cu6O14.082,79.000
Y0.8Ca0.2Ba2Cu3O6.86,79.000
Tm1Ba2Cu4O8,79.000
La2.1Gd0.7Ca1.4Ba2.8Cu0.7O16.471,79.000
Ba1.6Sr0.4Yb0.65Ca0.35Cu3O6.52,79.000
Y0.85Ca0.15Ba2Cu3O6.9,79.000
La2.1Y0.7Ca1.4Ba2.8Cu7O16.433,79.000
Ho1Ba2Cu4O8,79.000
Tl1Sr1.5Gd0.5Ca1Cu2O7,79.000
La1Er1Ba2Ca2Cu6O14.122,79.000
La1.5Gd0.5Ba2Ca1Cu5O11.892,79.000
La1Gd1Ba2Ca2Cu6O14.1,79.000
Eu1Ba2Cu2.95Ga0.05O6.78,79.000
Y1Ba2Cu2.94Ni0.06O7,79.000
Lu0.9Pr0.1Ba1.7Sr0.3Cu3O6.95,79.000
La1.1Ba1.5Ca0.4Cu3O7.06,79.000
Y1Ba1.85Cu2.85Co0.15O7.04,79.000
La1.5Nd0.5Ca1Ba2Cu5O11.583,79.000
Y0.1La0.9Ba2Cu3O7.05,79.000
Ba2Ca3Cu4F1.6O8.4,79.000
Y0.95Sc0.05Ba2Cu4O8,79.000
Yb1Ba2Cu4O8,78.800
Ca0.4Ba1.35La1.25Cu3O7.15,78.800
Er0.8Hf0.2Ba2Cu3O6.772,78.800
Y1Ba2Cu4O8,78.800
Ca0.4Ba1.35La1.25Cu3O7.14,78.800
Bi2Sr1.7Ca1.3Cu2O8.211,78.700
Tm1Ba2Cu4O8,78.600
Nd1Ba2Cu3O6.86,78.600
Y1Ba2Cu4O8,78.600
Ho1Ba2Cu4O8,78.500
Y1Ba1.4Sr0.6Cu4O7.8,78.500
Bi2Sr2Ca1Cu2O8.22,78.500
Sm1.1Ba1.9Cu3O7.05,78.500
Bi2Sr1.5Ca1.5Cu2O8.19,78.500
Pb2Sr2Ho0.5Ca0.5Cu3O8,78.500
Nd1Ba1.6Sr0.4Cu3O6.721,78.500
Bi1.7Pb0.3Sr2Ca0.96Y0.04Cu2O8.06,78.500
Nd1Ba1.8La0.2O6.81,78.500
Nd0.4Ca0.6Ba0.6La0.4Cu3O6.71,78.500
Y0.9Pr0.1Ba2Cu3O6.95,78.500
Y1Ba2Cu3O6.8,78.500
Y1Ba2Cu2.85Ga0.15O7,78.490
Pb2Sr2Y0.5Ca0.5Cu3O8,78.400
Y0.8Ca0.1Pr0.1Ba2Cu3O7.01,78.400
Y1Ba2Cu3.99Ni0.01O8,78.400
Tl0.5Pb0.5Sr2Ca1Cu2O7,78.400
Y0.87Pr0.13Ba2Cu3O7,78.350
Er1Ba2Cu4O8,78.300
Y1Ba2Cu4O7.9,78.300
Y1Ba2Cu2.94Co0.06O7,78.300
Y1Ba2Cu2.97Zn0.03O7,78.210
Er1Ba2Cu3O6.78,78.200
Gd1Ba2Cu3H1.32O6.89,78.200
Hg1Ba2Cu1O4.055,78.200
Y0.8Ca0.2Ba2Cu3O6.89,78.200
Bi2.2Sr1.72La0.08Ca1Cu2O8,78.200
Y1Ba2Cu3O6.876,78.100
Y0.84Sr1.16Ba1Cu2.78S0.22O7,78.100
Y1Ba2Cu4O8,78.100
Y2La0.4Ba3.6Cu6O13.91,78.000
Y1Ba1.8La0.2Cu3O6.95,78.000
Y1Ba1.9Sr0.1Cu4O7.9,78.000
Y1Ba1.8Sr0.2Cu4O7.9,78.000
Er1Ba2Cu4O8,78.000
Y2Ba4Cu7O14.85,78.000
Bi2Sr2Ca1Cu2O8.198,78.000
Gd1Ba2Cu3O7,78.000
Er1Ba1Sr1Cu3O6.94,78.000
Y1Ba2Cu3O6.8,78.000
La2.375Ca1.25Ba2.375Cu6O14.062,78.000
Y0.7Ca0.3Ba2Cu3O6.78,78.000
Y0.99Ca0.01Ba2Cu4O8,78.000
Sr1.5Ba0.5Y1Cu2.8Ti0.2O7.2,78.000
Bi2Sr2Ca1Cu2O8.216,78.000
Lu0.8Ca0.2Ba2Cu3O6.68,78.000
Pb2Sr2Y0.5Ca0.5Cu3F0.811O7.346,78.000
Ba1.6Sr0.4Yb0.65Ca0.35Cu3O6.53,78.000
Y0.9Tb0.1Ba2Cu4O8,78.000
Y1Ba0.5Sr1.5Cu3O6.98,78.000
Y1Ba2Cu4O8,78.000
Y0.75Eu0.25Ba2Cu4O8,78.000
Tl1Sr1.5Er0.5Ca1Cu2O7,78.000
La1.5Er0.5Ba2Ca1Cu5O11.907,78.000
La1.7Nd0.3Ca0.6Ba2Cu4.6O11.892,78.000
La1.5Nd0.5Ca1Ba2Cu5O11.872,78.000
Y0.85Ca0.15Ba2Cu3O6.71,78.000
Tl1Ba2Ca0.7Gd0.3Cu2O7,78.000
Hg1Ba2Cu1O4.17,78.000
Y0.8Ca0.2Ba1.8La0.2Cu3O6.96,78.000
Y0.7Ca0.3Ba1.7La0.3Cu3O6.96,78.000
Y0.6Ca0.4Ba1.6La0.4Cu3O6.96,78.000
Hg1Ba2Cu1O4.31,78.000
Sm1Ba2Cu2.96Fe0.04O6.81,78.000
Dy1Ba2Cu2.94Fe0.06O6.88,78.000
La1Ba1.5Ca0.5Cu3O7.011,78.000
Hg1Ba2Cu1F1O4,78.000
Y1Ba1.8La0.2Cu3O6.96,78.000
Y1Ba2Cu3.996Ni0.004O8,78.000
Y1Ba2Cu3O6.73,78.000