formula,Tc
B2Mg1,37.900
Mg0.997Fe0.003B2,37.900
La1.85Sr0.15Cu1O4,37.800
Pb0.6Cu1Sr1La1O5.06,37.800
Eu0.6Pr0.4Ba2Cu3O7,37.800
La2Cu1O4.095,37.800
Ru0.925Sn0.075Sr2Gd1Cu2O8,37.800
Mg0.93Li0.07B2,37.800
B2Mg1,37.800
Mg0.9Li0.1B2,37.800
Mg0.8Ti0.2B2,37.800
Mg0.982Cu0.018B2,37.800
Mg1B1.94C0.06,37.800
Mg0.9Al0.05Li0.05B2,37.800
Mg0.9Al0.1B2,37.800
Mg0.9Li0.05Al0.05B2,37.800
Ba0.6K0.4Fe2As2,37.800
Ca0.8La0.2Fe0.978Co0.022As2,37.800
Rb1Eu1Fe4As4,37.800
Ba0.5K0.5Fe2As2,37.780
Ba0.6K0.4Fe2As2,37.760
Gd1Sr2Ru0.9Cu2.1O8,37.750
Mg0.95Cu0.05B2,37.750
Bi4Sr4Ca1Tm1Cu4O16.67,37.700
La2Cu1O4,37.700
Pb0.5Cu1Sr0.9La1.1O5.08,37.700
Mg0.997Fe0.003B2,37.700
Mg0.95Zr0.05B2,37.700
Sr0.5K0.5Fe2As2,37.700
Mg1.995Mn0.005B2,37.700
Tl1Sr2Ca0.5Sm0.5Cu2O6.75,37.600
Pb0.6Cu1Sr1La1O5.05,37.600
Pb0.6Cu1Sr0.9La1.1O5.06,37.600
La1.847Sr0.153Cu1O4,37.600
Mg0.4Ti0.6B2,37.600
B2Mg1,37.600
Mg1.99Mn0.01B2,37.600
Mg0.97Cu0.03B2,37.580
Y1Ba2Cu3O6.49,37.500
Y1Ba2Cu2.94Ni0.06O6.56,37.500
La2Cu1O4.32,37.500
Tl1Sr1.9Cr0.1Cu1O5,37.500
La1.828Sr0.172Cu1O4,37.500
Sr2Y1Ru0.9Cu0.1O6,37.500
La1.85Sr0.15Cu1O4,37.500
Mg0.98Al0.02B2,37.500
Mg0.9Al0.1B2,37.500
B2Mg1,37.500
Mg0.85Li0.15B2,37.500
Mg0.6Ti0.4B2,37.500
Mg1B1.958C0.042,37.500
Ba0.7K0.3Fe2As2,37.500
Na0.65Fe1.93Se2,37.500
Ba0.66K0.34Fe2As2,37.500
Ca0.8La0.2Fe0.98Co0.02As2,37.500
La1.85Sr0.15Cu1O4,37.430
Y1Ba2Cu2.9Fe0.1O6.75,37.400
Y1Ba2Cu2.95Fe0.05O6.64,37.400
La1.75Pr0.1Sr0.15Cu1O4,37.400
La1.85Sr0.15Cu1O4,37.400
B2Mg1,37.400
Mg0.9Li0.1B2,37.400
Mg0.98Co0.02B2,37.400
Mg1.985Mn0.015B2,37.400
Ba0.7K0.3Fe2As2,37.400
Nd1Fe0.9Ru0.1As1F0.11O0.89,37.400
K0.8Fe1.97Mn0.03Se2,37.400
Ba0.58K0.42Fe2As2,37.400
Mg1.9Cu0.1B12,37.300
B2Mg1,37.300
Mg0.97Al0.03B2,37.300
Mg0.9Zr0.1B2,37.300
Mg0.8Zr0.2B2,37.300
Mg1B1.9C0.1,37.300
Nb0.6Ru0.4Sr2Eu1.5Ce0.5Cu2O10,37.300
Ba0.6K0.4Fe2As2,37.300
Ce1Fe1As1H0.4O0.6,37.300
La1.8Sr0.2Cu1O4,37.200
La1.83Sr0.17Cu1O4,37.200
Mg1B1.98C0.02,37.200
B2Mg0.7,37.200
Sm1Fe0.99Mn0.01As1F0.12O0.88,37.200
Ba0.5K0.5Fe1.9Ru0.1As2,37.140
La1.85Sr0.15Cu1O4,37.100
La1.84Sr0.16Cu1O4,37.000
La1.83Sr0.17Cu1O4,37.000
La1.85Sr0.15Cu1O4,37.000
Tl0.8La1Sr1Cu1.2O5,37.000
La2Cu1O4,37.000
Bi2Sr2Ca0.6Y0.4Cu2O8,37.000
Y2Ba4Cu7O14.13,37.000
Y1Sr2Cu2.75Re0.25O7,37.000
Y1Sr2Cu2.6Fe0.4O7,37.000
La1.75Sr0.25Cu1O4.07,37.000
La1.67Sr0.33Cu1O4,37.000
Nd2Cu1F0.3O3.7,37.000
La1.82Sr0.18Cu1O4,37.000
La2Tl2Sr2Cu3O11,37.000
Tl1Sr2Ca1Cu2O6.75,37.000
Nd1Ba1.6La0.4O6.68,37.000
Nd1Ba1Ca1Cu3O7,37.000
La1.85Sr0.15Cu1O3.998,37.000
Y0.6Pr0.4Ba2Cu3O6.95,37.000
Y0.8Pr0.2Ba2Cu3O6.6,37.000
Y1Ba2Cu2.94Zn0.06O6.75,37.000
La1.82Sr0.18Cu0.98Mn0.02O4,37.000
La1.79Sr0.21Cu0.96Mn0.04O4,37.000
La1.76Sr0.24Cu0.94Mn0.06O4,37.000
La1.73Sr0.27Cu0.92Mn0.08O4,37.000
La1.7Sr0.3Cu0.9Mn0.1O4,37.000
Hg1.4Tl0.6Ba2Y0.9Ca0.1Cu2O7.88,37.000
La1.86Sr0.14Cu1O4,37.000
La1.758Pr0.092Sr0.15Cu1O4,37.000
Bi1.6Sr0.4Yb1Cu3O6.35,37.000
Ru1Sr2Gd1Cu2O8,37.000
Er1Ba2Cu2.73Zn0.18Fe0.09O6.94,37.000
Tl2Ba2Cu1O6,37.000
La1.81Sr0.19Cu0.98Mn0.02O4,37.000
La1.77Sr0.23Cu0.96Mn0.04O4,37.000
La1.73Sr0.27Cu0.94Mn0.06O4,37.000
La1.83Sr0.15Na0.02Cu1O4,37.000
La1.8Sr0.15Na0.05Cu1O4,37.000
La1.75Sr0.15Na0.1Cu1O4,37.000
La1.7Sr0.15Na0.15Cu1O4,37.000
La1.55Sr0.15Na0.3Cu1O4,37.000
Tb1Sr2Cu2.7Mo0.3O7.15,37.000
Mg0.95Al0.025Li0.025B2,37.000
Mg0.94Al0.06B2,37.000
B2Mg1,37.000
Mg1B1.8C0.2,37.000
Mg0.994Fe0.006B2,37.000
Sm1La0.82Sr0.18Cu1O4,37.000
Ba0.6K0.4Fe2As2,37.000
K0.4Sr0.6Fe2As2,37.000
Dy1Fe1As1O0.7,37.000
Ba0.68K0.32Fe2As2,37.000
Mg1B1.98C0.02,37.000
Mg1B1.968C0.032,37.000
Mg1B1.938C0.062,37.000
Ba0.677K0.323Fe2As2,37.000
Li0.8Fe1.2H1Se1O1,37.000
Rb1Eu1Fe4As4,37.000
La1.836Sr0.164Cu1O4,36.900
Ru0.975Sn0.025Sr2Gd1Cu2O8,36.900
B2Mg0.6,36.900
Sr0.875La0.125Cu1O2,36.900
La1.86Sr0.14Cu1O4,36.900
Mg1.98Mn0.02B2,36.900
Ba0.5K0.5Fe2As2,36.900
Ba0.7Rb0.3Fe2As2,36.900
Ba0.59K0.41Fe2As2,36.900
Mg1B1.8C0.2,36.800
La1.85Sr0.15Cu1O4,36.800
Sr1Cs1Fe4As4,36.800
Ba0.6K0.4Fe2As2,36.800
Rb1Eu1Fe4As4,36.800
Eu1Rb1Fe4As4,36.780
La1.85Sr0.15Cu1O4,36.700
Y1Ba2Cu3.92Zn0.08O8,36.700
Pb0.6Cu1Sr1La1O5.09,36.700
Pb0.5Cu1Sr1La1O5.03,36.700
Pb0.5Cu1Sr1La1O5.05,36.700
Ba1.2Sr0.8Yb1Cu3O6.61,36.700
Ru1Sr2Gd1Cu2O8,36.700
Mg0.99Cr0.01B2,36.700
Ba0.72K0.28Fe2As2,36.700
Sr2Mg0.3Ti0.7Fe1As1O3,36.700
Sr0.9Y0.1Cu1O2,36.600
Sr0.85Y0.15Cu1O2,36.600
La1.868Sr0.132Cu1O4,36.600
Y1Ba1.5La0.5Cu3O7.22,36.600
B2Mg1,36.600
Mg0.95Al0.05B2,36.600
Cs0.4Sr0.6Fe2As2,36.600
Y1Ba2Cu3O6.4,36.550
Eu0.75Ca0.25Rb1Fe4As4,36.540
Y0.2Ca0.4Pr0.4Ba2Cu3O7,36.500
La1.85Sr0.15Cu1O4,36.500
La1.85Sr0.15Cu0.98Li0.02O4,36.500
Nd1Ba1.65La0.35O6.69,36.500
Mg1.8Cu0.2B12,36.500
Mg0.95Al0.05B2,36.500
B2Mg1,36.500
Ba0.6K0.4Fe2As2,36.500
Ba0.7K0.3Fe2As2,36.500
La1.75Sr0.25Cu0.94Ni0.06O4,36.500
Ba0.5K0.5Fe1.8Ru0.2As2,36.500
Fe1Sr2Gd1Cu2O7.58,36.500
Ca0.8La0.2Fe0.967Co0.033As2,36.500
Rb1Eu1Fe4As4,36.500
Eu1Rb1Fe4As4,36.500
Eu0.75Ca0.25Rb1Fe4As4,36.500
Eu0.5Ca0.5Rb1Fe4As4,36.500
Eu0.5Ca0.5Rb1Fe4As4,36.490
La1.85Sr0.15Cu1O4,36.400
La1.83Sr0.17Cu1O4,36.400
Y1Ba2Cu3.92Zn0.08O8,36.400
Mg0.9Al0.05Li0.05B2,36.400
Mg1B1.7C0.3,36.400
La1.75Sr0.25Cu0.94Co0.06O4,36.400
Sr2V1Fe1As1O3,36.400
Sm1Fe1As1F0.06O0.94,36.400
Rb1Eu1Fe4As4,36.400
Sm1Fe1As0.9P0.1F0.12O0.88,36.350
Ca0.79La0.21Fe1As2,36.350
Sm0.9Pr0.1Ba2Cu3O6.75,36.300
Ru0.99Ti0.01Sr2Gd1Cu2O8,36.300
Ru0.95Rh0.05Sr2Gd1Cu2O8,36.300
Mg0.95Al0.05B2,36.300
Mg1B1.85C0.15,36.300
Ba0.6K0.4Fe2As2,36.300
Ca1Rb1Fe4As4,36.260
Mg0.99Mn0.01B2,36.200
Mg1B1.9C0.1,36.200
Mg1B1.924C0.076,36.200
Mg0.97Co0.03B2,36.200
La0.7Y0.3Fe1As1F0.15O0.85,36.200
Y1Ba2Cu3.92Co0.08O8,36.200
Ca0.78Ce0.22Fe2As2,36.200
La1Fe1As1H0.46O0.54,36.200
La1.85Sr0.15Cu0.995Ni0.005O4,36.100
La1.85Sr0.15Cu1O4,36.100
Mg1B1.96C0.04,36.100
Mg0.9Al0.1B2,36.100
Pr0.1La1.7Sr0.2Cu1O4,36.000
La1.85Sr0.15Cu1O4,36.000
Y1Ba2.01Cu2.7Co0.3O6.8,36.000
Y1.01Ba2.01Cu2.697Fe0.303O1,36.000
Y1Ba2Cu2.7Co0.3O7.11,36.000
La1.8Sr0.2Cu1O4,36.000
La1.825Sr0.175Cu1O4,36.000
Y1Ba2Cu2.7Fe0.3O7.15,36.000
Y2Ba4Cu7O14.04,36.000
Tm0.5Pr0.5Ba2Cu3O6.64,36.000
Bi1.95Sr1.65La0.4Cu1O4,36.000
Bi1.6Pb0.4Sr1.6La0.4Cu1O4,36.000
Hg1Ba2Cu1O4.09,36.000
Y0.5Pr0.5Ba1Sr1Cu3O6.9,36.000
Pb0.5Cd0.5Sr1.6Ba0.4Ca0.5Y0.5Cu2O7,36.000
Nd1.3Ba1.5Ca0.2Cu3O6.952,36.000
Nd1.3Ba1.5Sr0.2Cu3O6.917,36.000
La2Cu1O4.068,36.000
La1.837Sr0.162Cu1O4,36.000
La1.86Sr0.14Cu1O4,36.000
Ru1Sr2Gd1Cu2O8,36.000
Er1Ba2Cu2.76Zn0.24O6.89,36.000
La1.85Sr0.15Cu1O4.01,36.000
Hg0.7Mo0.3Sr2Cu1O4,36.000
Hg1Ba2Cu1O4.032,36.000
Ca2Cu1Cl2.3O2,36.000
La3Ca0.3Cd0.7Ba3Cu7O16.303,36.000
Mg1B1.924C0.076,36.000
Mg0.9Al0.1B2,36.000
Mg0.8Al0.2B2,36.000
Mg0.97Fe0.03B2,36.000
Mg1B1.8Be0.2,36.000
B2Mg1,36.000
B2Mg0.5,36.000
Ba0.5K0.5Fe2As2O1,36.000
K0.4Sr0.6Fe2As2,36.000
Sr0.42K0.58Fe2As2,36.000
Ho1Fe1As1F0.1O0.9,36.000
La1.822Sr0.178Cu1O4,36.000
Ba0.5K0.5Fe2As2,36.000
Fe2As2Ca6Al1.32Ti2.68O12,36.000
Fe2As2Ca5Sc2Ti2O10,36.000
Fe2As2Ca4Sc2Ti3O13,36.000
Fe2As2Ca5Mg1Ti3O9.5,36.000
Ba0.7K0.3Fe2As2,36.000
La1Fe1As1H0.36O0.64,36.000
Na0.65Fe1.93Se1.8S0.2,36.000
Sm1Fe1As0.77P0.23H0.2O0.8,36.000
Eu1Rb1Fe4As4,36.000
Eu0.25Ca0.75Rb1Fe4As4,36.000
Ca1K1Fe4As4,36.000
Eu0.25Ca0.75Rb1Fe4As4,35.940
Nd0.9Pr0.1Ba2Cu3O6.75,35.900
Nd1.35Ba1.65Cu3O7.02,35.900
Pb0.6Cu1Sr1La1O5.12,35.900
La1.8Nd0.2Cu1O4.086,35.900
Mg0.99Pb0.01B2,35.900
Mg0.98Al0.02B2,35.900
Mg0.983Al0.017B1,35.900
La1.85Sr0.15Cu1O4,35.800
Y0.85Pr0.15Ba2Cu3O6.5,35.800
Bi1.8Pb0.2Sr2Ca1Cu1.84Co0.16O8,35.800
Y1Ba2Cu3O6.4,35.800
Mg0.93Al0.07B2,35.800
Mg1B1.6C0.4,35.800
Mg1B1.924C0.076,35.800
Ba0.65Rb0.35Fe2As2,35.800
Ca1K1Fe4As4,35.800
La1.8Sr0.2Cu1O4,35.700
La1.85Sr0.15Cu1O4,35.700
Y1Ba2Cu3O6.45,35.700
Mg0.85Li0.15B2,35.700
La1.85Sr0.15Cu0.992Zn0.008O4,35.700
Tb1Fe1As1O0.8,35.700
C60Cs3,35.700
Ca0.7La0.3Fe1As1H1,35.700
La1.85Sr0.15Cu1O4,35.600
La1.8Nd0.2Cu0.99Zn0.01O4.086,35.600
Mg0.94Li0.06B1.96C0.04,35.600
Sr0.6K0.4Fe2As2,35.600
La0.7Y0.3Fe1As1O0.6,35.600
Li0.8Fe1.2Se0.78S0.22H1O1,35.600
Ca1K1Fe4As4,35.600
Mg0.9Li0.1B2,35.550
La1.85Sr0.15Cu1O4,35.500
La1.8Sr0.2Cu1H0.1O4,35.500
Y0.85Ca0.15Sr1.5Ba0.5Cu2.5B0.5O7,35.500
Bi1.95Sr1.65La0.4Cu1O6.311,35.500
Y1Ba2Cu3O6.5,35.500
Mg1B0.96C0.04,35.500
Mg0.98Pb0.02B2,35.500
Mg0.92Al0.08B2,35.500
Mg1B1.924C0.076,35.500
Mg0.99Co0.01B2,35.500
Mg1B1.96C0.04,35.500
Mg1B1.904C0.096,35.500
La1.85Sr0.15Cu1O4,35.450
La1.85Sr0.15Cu1H0.1O4,35.400
La1.8Pr0.2Ca0.4Ba2Cu4.4O10.735,35.400
Mg1B1.9C0.1,35.400
Mg1B1.924C0.076,35.400
Ba1Fe2As3,35.400
La1.85Sr0.15Cu1O4,35.300
Hg1.4Tl0.6Ba2Y0.2Ca0.8Cu2O7.66,35.300
La1.8Nd0.2Cu1O4.07,35.300
Mg0.98Cr0.02B2,35.300
Mg0.89Li0.11B2,35.300
Ca1Rb1Fe1As4,35.240
La1.85Sr0.15Cu1O4,35.200
Y1Ba2Cu2.79Zn0.21O7,35.200
La1.8Sr0.2Cu1O4,35.200
Ba0.4K0.6Fe2As2,35.200
Pr1Fe1As0.9P0.1F0.1O0.9,35.200
La1.85Sr0.15Cu0.995Zn0.005O4,35.100
La1.83Sr0.17Cu1O4,35.100
La1.85Sr0.15Cu1O4,35.100
Mg0.97Cr0.03B2,35.100
Mg0.86Al0.14B2,35.100
Ca0.85La0.15Fe1As2,35.100
Ca8.85La1.15Pt3Fe10As18,35.100
Ca0.8La0.2Fe0.956Co0.044As2,35.100
Sr1Rb1Fe4As4,35.100
Ca1K1Fe4As4,35.100
Nd0.1La1.7Sr0.2Cu1O4,35.000
Er1Ba2Cu3O6.15,35.000
La1.85Sr0.15Cu1O4,35.000
La1.88Ba0.12Cu1O4,35.000
Y0.6Pr0.4Ba2Cu3O7,35.000
Sr0.86Nd0.14Cu1O2,35.000
Y1Sr1.2Ba0.8Cu2.5B0.5O7,35.000
Y1Sr0.4Ba1.6Cu2.5B0.5O7,35.000
Nd2Ba4Cu7O15.38,35.000
Y1Sr2Cu2.7Ti0.3O7.224,35.000
Bi1.95Sr1.65Pr0.4Cu1O4,35.000
Bi1.95Sr1.65Nd0.4Cu1O4,35.000
Hg1Ba2Cu1O4.1,35.000
La1Sm0.8Sr0.2Cu1O4,35.000
Yb0.8Ca0.2Ba0.8Sr0.4Cu3O6.85,35.000
Nd1.3Ba1.3Sr0.4O6.828,35.000
Sr1.5Ba0.5Y1Cu2.8Ti0.2O7,35.000
La2Cu1O4.035,35.000
Sr0.83Nd0.17Cu1O2,35.000
Nd0.9Pr0.1Ba1Ca1Cu3O7,35.000
Y1Ba2Cu3O6.43,35.000
Hg0.85Re0.15Ba2Cu1O4.58,35.000
Ru1Sr2Y1Cu2O8,35.000
Ru1Sr2Eu1Cu2O8,35.000
Ru1Sr2Gd1Cu2O8,35.000
La1.825Sr0.175Cu1O4,35.000
Tl1Ba1.5La0.5Cu1O5,35.000
Y1Ba2Cu3F0.76O6,35.000
Lu0.55Pr0.45Ba1.7Sr0.3Cu3O6.92,35.000
Hg1Tl1Ba2Ca1Cu2O8,35.000
La1.715Nd0.125Sr0.16Cu1O4,35.000
La1.1Ba1.5Ca0.4Cu3O7.25,35.000
La1.5Ba1.4Ca0.1Cu3O6.964,35.000
La1.5Ba1.3Ca0.2Cu3O6.957,35.000
La1.665Pr0.185Sr0.15Cu1O4,35.000
La1.87Sr0.13Cu1O4,35.000
Y0.6Pr0.4Ba2Cu3O6.965,35.000
Sm1Ba1.85Pr0.15Cu3O7.02,35.000
Y1Ba2Cu3O6.4,35.000
Y1Ba2Cu2.95Zn0.05O6.72,35.000
Y1Ba2Cu2.94Zn0.06O6.73,35.000
La1.865Sr0.135Cu1O4,35.000
Y0.7Ca0.3Ba2Cu3O6.12,35.000
C0.7N0.3Sr2Cu1O5.35,35.000
Hg1Ba2Cu1O4.37,35.000
Eu1.4Ce0.6Sr2Ru1Cu2O10,35.000
Tl1Sr2Ca0.4Y0.6Cu2O7,35.000
La1.84Sr0.16Cu0.99Fe0.01O4,35.000
Ga1Sr2Y0.8Ca0.2Cu2O7,35.000
Ga1Sr2Y0.7Ca0.3Cu2O7,35.000
Ga1Sr2Y0.5Ca0.5Cu2O7,35.000
Mg0.94Pb0.06B2,35.000
Mg0.815Al0.024B2,35.000
C0.9S0.1,35.000
Mg1B1.96C0.04,35.000
Mg1B1.896C0.104,35.000
Sm0.96La0.84Sr0.2Cu1O4,35.000
Nd1Fe1As1F0.08O0.92,35.000
La1.834Sr0.166Cu1O4,35.000
Ba1Fe2As2,35.000
Ba0.5K0.5Fe2As2,35.000
Ba0.6K0.4Fe2As2,35.000
Ba0.68K0.32Fe1.954Co0.046As2,35.000
La1Fe1As1H0.6O0.6,35.000
La1Fe1As1H0.85,35.000
Li0.8Fe1.2Se0.72S0.28H1O1,35.000
Ca0.85La0.15Fe1As2,35.000
Eu1Cs1Fe4As4,35.000
Ca1Rb1Fe4As4,35.000
Ca1K1Fe4As4,35.000
La1Fe1As1H0.3O0.3,35.000
Ca10Pt4Fe10As18,35.000
Ca1K1Fe4As4,34.970
La1.855Sr0.145Cu1O4,34.900
Eu2.17Ce0.5Sr1.33Cu2.5Co0.5O9.08,34.900
Pb0.5Cu1Sr0.8La1.2O5.1,34.900
Y0.74Ca0.16Sr2.1Cu2.78S0.22O7,34.900
La1.95Bi0.05Cu1O4.064,34.900
Mg0.988Fe0.012B2,34.900
C60Cs3,34.900
Y0.75Ca0.25Ba2Cu3O6.008,34.850
La1.78Sr0.22Cu1O3.945,34.800
Yb0.5Pr0.5Ba2Cu3O6.9,34.800
Pb0.6Cu1Sr0.8La1.2O5.11,34.800
La1.85Sr0.15Cu0.998Zn0.003O4,34.800
La1.8Nd0.2Cu1O4.071,34.800
Mg1B1.94C0.06,34.800
La1.85Sr0.15Cu0.998Co0.003O4,34.800
Tb1Fe1As1O0.75,34.800
La0.7Y0.3Fe1As1F0.1O0.9,34.800
Sr0.15La1.85Cu1O4,34.700
La1.85Sr0.15Cu1O4,34.700
Ca0.2Ba1.55La1.25Cu3O7.03,34.700
La2Cu1O4.017,34.700
Hg0.85Re0.15Ba2Cu1O4.58,34.700
Mg1B1.89C0.11,34.700
Mg0.978Al0.022B2,34.700
Mg0.91Al0.09B2,34.700
La1.82Sr0.18Cu1O4,34.600
Ba0.6K0.4Fe2As2,34.600
Y0.85Ca0.15Ba2Cu2.8Zn0.2O6.74,34.600
Y1Ba2Cu3.88Zn0.12O8,34.500
Tb1Sr2Cu2.69Mo0.31O7,34.500
Mg0.98Mn0.02B2,34.500
Mg0.9Co0.1B2,34.500
La1.85Sr0.15Cu1O4,34.500
Sm1Fe0.97Ni0.03As1F0.12O0.88,34.500
Ca8.6La1.4Pt3Fe10As18,34.500
Ca0.8Ce0.2Fe0.975Co0.025As2,34.500
Sr2V1Fe1As1O3,34.450
La1.85Sr0.15Cu0.995Ni0.005O4,34.410
La1.812Sr0.188Cu1O4,34.400
La1.85Sr0.15Cu1O4,34.400
Er0.5Pr0.5Ba2Cu3O6.82,34.400
La1.868Sr0.132Cu1O4,34.400
La1.883Sr0.117Cu1O4,34.400
Y1Ba2Cu3O6.45,34.400
La1.87Sr0.13Cu1O4,34.400
La1.73Sr0.27Cu0.94Ni0.06O4,34.400
Nd1Ba2Cu3O6.65,34.300
La1.35Pr0.5Sr0.15Cu1O4,34.300
Mg1B1.9C0.1,34.300
La1.943Sr0.178Cu1O4,34.300
Ba0.5K0.5Fe1.92Zn0.08As2,34.300
Ba0.5K0.5Fe1.8Zn0.2As2,34.300
Ba0.47K0.53Fe2As2,34.300
Ca1K1Fe4As4,34.300
Mg1B1.7C0.3,34.270
La1.8Sr0.2Cu1O4,34.200
La1.82Nd0.03Sr0.15Cu1O4,34.200
Sm1Ba2Cu3O6.62,34.200
Mg1B1.9C0.1,34.200
Mg0.994Fe0.006B2,34.200
Mg1B1.8C0.2,34.200
Ba0.5K0.5Fe1.84Zn0.16As2,34.200
Ba0.6Na0.4Fe2As2,34.200
Mg1B1.8C0.2,34.160
La1.9Sr0.1Cu1O4,34.100
La1.85Sr0.12Ca0.016Ba0.014Cu1O3.99,34.100
Nd1Fe1As0.8P0.2F0.1O0.9,34.100
La1.85Sr0.15Cu1O4,34.000
La2Cu1O4.13,34.000
Y2Ba4Cu7O14.16,34.000
Bi2Sr2Gd1.64Ce0.36Cu2O10.24,34.000
La1.7Sr0.3Ca1Cu2O6,34.000
Tl1La1Sr1Cu1O5,34.000
Y1Sr2Cu2.65Fe0.35O6.7,34.000
La1.82Sr0.18Cu1O3.994,34.000
La1.83Sr0.17Cu1O4,34.000
Y1Ba2Cu3O6.4,34.000
Bi2Sr8Cu4C3O21,34.000
Er1Ba2Cu2.28Co0.18O6.74,34.000
Er1Ba2Cu2.82Co0.18O6.74,34.000
Bi1.95Sr1.65La0.4Cu1O6.298,34.000
Ba1.6Sr0.4Yb1Cu3O6.53,34.000
Ba1.6Sr0.4Yb0.75Ca0.25Cu3O6.3,34.000
La2Cu1O4.03,34.000
La2Cu1O4.044,34.000
La2Cu1O4.065,34.000
Tl1Ba1.6La0.4Cu1O5,34.000
Y1Ba2Cu3O6.62,34.000
La1.1Ba1.5Ca0.4Cu3O6.76,34.000
La1.88Sr0.12Cu1O4,34.000
Y1Ba1Sr1Cu3O6.685,34.000
La1.48Pr0.37Sr0.15Cu1O4,34.000
Nd0.7Pr0.3Ba1Sr1Cu3O6.87,34.000
La1.85Ca0.15Cu1O4,34.000
La1.84Ca0.16Cu1O4,34.000
La1.83Ca0.17Cu1O4,34.000
Eu0.6Pr0.4Ba1.5Sr0.5Cu3O6.89,34.000
La0.5Ca0.2Pr0.3Ba1.5Sr0.5Cu3O6.829,34.000
Eu1.5Ce0.5Sr2Ru1Cu2O10,34.000
Ru1Sr2Gd1.4Ce0.6Cu2O9.54,34.000
Mg1B1.95C0.05,34.000
Mg0.9Pb0.1B2,34.000
La1.77Sr0.23Cu0.94Mn0.06O4,34.000
Mg0.956Al0.044B2,34.000
Mg1B1.9C0.1,34.000
Mg0.8Li0.2B2,34.000
Mg0.75Co0.25B2,34.000
Mg0.9Fe0.1B2,34.000
Mg1B1.6C0.4,34.000
Mg0.8Zn0.1Al0.1B2,34.000
Sm0.9La0.9Sr0.2Cu1O4,34.000
Ba1Fe2As2,34.000
La1.73Sr0.27Cu0.94Co0.06O4,34.000
Nd1Fe0.85Ru0.15As1F0.11O0.89,34.000
La1.76Sr0.24Cu0.94Mn0.06O4,34.000
Ba0.6Rb0.4Fe2As2,34.000
Ca0.34Na0.66Fe2As2,34.000
Ba0.72K0.28Fe2As2,34.000
Ba0.5K0.5Fe2As2,34.000
Ca0.9La0.1Fe1As2,34.000
Ca0.84La0.16Fe1As2,34.000
Sr1Fe2As1.3P0.7,34.000
Li0.8Fe1.2H1Se1,34.000
Ca0.81La0.19Fe1As2,34.000
Ba0.6Na0.4Fe2As2,34.000
La0.8Y0.2Fe1As1O0.7,34.000
Ca8.5La1.5Pt3Fe10As18,34.000
Mg1B1.9C0.1,33.980
Y0.6Pr0.4Ba2Cu3O6.8,33.900
Y0.8Pr0.2Ba2Cu3O6.5,33.900
Y0.6Pr0.4Cu2.85Re0.15O7,33.900
Pb0.6Cu1Sr1.1La0.9O5.07,33.900
Ca10Pt4.3Fe9.7As18,33.900
Sr1Fe2As1.4P0.6,33.900
Bi1.8Pb0.2Sr2Ca1Cu1.92Fe0.08O8,33.800
Mg0.75Li0.25B2,33.700
Ba0.6Na0.4Fe2As2,33.700
Ca10Pt5.8Fe8.2As18,33.650
La1.75Sr0.25Cu0.96Ni0.04O4,33.600
La1.95Ba0.05Cu1O4,33.600
Y0.55Pr0.45Ba2Cu3O6.98,33.600
La1.85Sr0.15Cu0.99Ni0.01O4,33.600
La1.85Sr0.15Cu0.997Fe0.003O4,33.600
La1.87Sr0.13Cu1O4,33.540
Bi2Ca2.5Nd0.5Cu2O8.43,33.500
Pr0.2Ca0.8Ba1La1Cu3O7.1,33.500
La1.85Sr0.15Cu0.97Li0.03O4,33.500
Cu2Re0.25Sr2Y1.3Ce0.7O9.06,33.500
Y1Ba2Cu3O6.45,33.500
La1.725Nd0.125Sr0.15Cu1O4,33.500
Mg0.82Al0.18B2,33.500
Mg0.99Sn0.01B2,33.500
Ba0.5K0.5Fe1.88Zn0.12As2,33.500
Tl0.58Rb0.42Fe1.72Se2,33.500
La1Fe1As1F0.28O0.68,33.500
Pb2Cu2La1.1O6.28,33.400
Mg0.8Al0.2B2,33.400
Mg0.9Al0.1B2,33.400
Ca0.25Na0.75Fe2As2,33.400
K1Ca2Fe4As4F2,33.360
La1.8Sr0.2Cu1O4,33.300
Y1Ba1.9La0.1Cu3.95Zn0.05O8,33.300
Mg0.97Mn0.03B2,33.300
Mg1B1.874C0.126,33.300
Mg1B1.6C0.4,33.300
La1.943Sr0.13Cu1O4,33.300
La1.815Sr0.185Cu1O3.964,33.200
Pb2Sr0.9La1.1Cu2O6.31,33.200
Mg0.98Ir0.02B2,33.200
La1.84Sr0.05Ca0.11Cu1O4,33.200
Ca0.88Ce0.12Fe2As2,33.200
Ba0.5Na0.5Fe2As2,33.200
La0.8Y0.2Fe1As1F0.11O0.89,33.200
K1Ca2Fe4As4F2,33.200
Mg1B1.868C0.132,33.150
La1.895Ba0.105Cu1O4,33.100
Ba0.72K0.28Fe2As2,33.100
Ba0.65Na0.35Fe2As2,33.100
Ca1K1Fe4As4,33.100
Ba0.45K0.55Fe2As2,33.100
Y1Ba2Cu2.7Fe0.3O7,33.000
Y1.01Ba2.03Cu2.808Li0.192O6.6,33.000
Gd1Ba2Cu2.7Co0.3O6.9,33.000
Y1Ba2Cu3O6.4,33.000
Eu0.1La1.7Sr0.2Cu1O4,33.000
La1.85Sr0.15Cu1O4,33.000
Tl0.6La1Sr1Cu1.4O5,33.000
Cs2Rb1C60,33.000
Y1Sr2Cu2.7Re0.3O7.1,33.000
Y1Sr2Cu2.75W0.25O6.9,33.000
La1.82Sr0.18Cu1O3.987,33.000
La1.855Sr0.145Cu0.99Ni0.01O4,33.000
La1.9Sr0.1Cu1O4,33.000
Bi1.95Sr1.75La0.3Cu1O4,33.000
Y1Ba2Cu2.9Fe0.1O6.72,33.000
Nd1.3Ba1.7Cu3O6.987,33.000
Nd1Ba1Ca1Cu3O7,33.000
La1.86K0.14Cu1O3.97,33.000
Bi0Mo0.33Cu2.67Sr2Y1O7.41,33.000
La1.8Sr0.2Cu1O4,33.000
Y1Ba2Cu3O6.45,33.000
Y0.65Pr0.35Ba2Cu3O6.95,33.000
La1.862Sr0.138Cu1O4,33.000
La1.812Sr0.188Cu1O4,33.000
La1.835Sr0.165Cu0.995Ni0.005O4,33.000
La1.295Pr0.555Sr0.15Cu1O4,33.000
Bi2Sr1.56La0.44Cu1O6,33.000
La1.85Sr0.15Cu1O3.99,33.000
La1.82Ca0.18Cu1O4,33.000
C0.8N0.2Sr2Cu1O5.3,33.000
La0.75Ca0.05Pr0.2Ba1.5Sr0.5Cu3O6.886,33.000
Eu1.3Ce0.7Sr2Ru1Cu2O10,33.000
Y0.8Pr0.2Ba2Cu3.95Fe0.05O8,33.000
La1.85Sr0.15Cu0.99Fe0.01O4,33.000
La1.81Sr0.19Cu0.98Ti0.02O4,33.000
Ru1Sr2Eu1.5Ce0.5Cu2O9.6,33.000
Mg0.927Al0.073B1,33.000
Mg0.8Al0.2B2,33.000
Rb1Cs2C60,33.000
Mg1B1.84C0.16,33.000
Mg1B1.89C0.11,33.000
La1.85Sr0.15Cu0.995Ni0.005O4,33.000
La1.85Sr0.15Cu0.995Co0.005O4,33.000
Sm1Fe1As1F0.07O0.93,33.000
Sr2V1Fe1As1O3,33.000
La1.71Sr0.29Cu0.94Co0.06O4,33.000
K0.8Fe2Se2,33.000
Ca0.33Na0.66Fe2As2,33.000
La1.79Sr0.21Cu1O4,33.000
Fe2As2Ca5Sc2Ti2O10.5,33.000
Eu0.5K0.5Fe2As2,33.000
Ca0.32Na0.68Fe2As2,33.000
Sm1Fe1As1F0.075O0.925,33.000
Mg1B2,33.000
Tl2Ba2Cu1O6,33.000
K1Ca2Fe4As4F2,33.000
Y1Ba1.9La0.1Cu3O6.5,32.900
La1.8Sr0.2Cu1O4,32.900
Mg0.8Al0.1Li0.1B2,32.900
Mg1B1.7Be0.3,32.900
Mg1B1.88C0.12,32.900
Mg0.97Fe0.03B2,32.900
Ru1Sr2Eu1Cu2O8,32.900
La1.87Sr0.13Cu0.98Li0.02O4,32.850
Ru0.95Rh0.05Sr2Gd1Cu2O8,32.850
Sm1Ba2Cu3O6.65,32.800
La1.77Sr0.23Cu0.96Ti0.04O4,32.800
Ba0.5Na0.5Fe2As2,32.800
Ca8.87La1.13Pt3Fe10As18,32.800
Ce1Fe1As1F0.1O0.9,32.800
K1Ca2Fe4As4F2,32.800
Mg0.815Al0.09B2,32.700
La1.85Sr0.15Cu0.996Zn0.004O4,32.700
Ba0.45K0.55Fe2As2,32.700
La1.85Sr0.15Cu0.993Ni0.007O4,32.600
La1.8Sr0.2Cu1O4,32.600
Sr0.7Y0.3Cu1O2,32.600
Bi1.95Sr1.65La0.4Cu1O6.28,32.600
La0.85Pr1Sr0.15Cu1O4,32.600
Nd1Fe1As1F0.2O0.8,32.600
La1.85Sr0.15Cu0.996Zn0.004O4,32.600
K0.85Fe2Se1.8,32.600
Rb0.77Fe1.61Se2,32.600
Y1Ba2Cu2.85Zn0.15O6.9,32.500
La1.8Sr0.2Cu1O4,32.500
La1.8Ba0.2Cu1O4,32.500
La1.85Sr0.15Cu1O4,32.500
La1.81Sr0.15Ho0.04Cu1O4,32.500
Ru0.95Ir0.05Sr2Gd1Cu2O8,32.500
La0.8Y0.2Fe1As1O0.6,32.500
La1.73Sr0.27Cu0.94Fe0.06O4,32.500
La1.71Sr0.29Cu0.94Fe0.06O4,32.500
La1.77Sr0.23Cu0.94Co0.06O4,32.500
Eu0.51K0.49Fe2As2,32.500
Ba0.55K0.45Fe1.95Co0.05As2,32.500
La1Fe1As1H0.7,32.500
K0.83Fe1.83Se2,32.500
K0.8Fe2Se2,32.500
Ca0.86Pr0.14Fe2As2,32.500
Y1Ba2Cu2.885Zn0.195O7,32.400
La1.875Sr0.125Cu1O4,32.400
Y0.8Ca0.2Ba2Cu3O6.41,32.400
Mg0.915Al0.085B2,32.400
Mg0.75Al0.25B2,32.400
K0.8Fe1.5Se2,32.400
Rb0.796Fe1.596Se2,32.400
Rb0.801Fe1.602Se2,32.400
Rb0.74Fe1.6Se2,32.400
Rb0.8Fe1.6Se2,32.400
La1.89Ba0.11Cu1O4,32.300
La1.85Sr0.15Cu0.98Ti0.02O4,32.300
Mg0.96Mn0.04B2,32.300
Ca8.44La1.56Pt3Fe10As18,32.300
K0.8Fe2Se2,32.250
La1.92Ba0.08Cu1O4,32.200
Y1Ba1.6La0.4Cu3O7,32.200
La1.82Sr0.18Cu1O4,32.200
La1.85Sr0.09Ca0.034Ba0.026Cu1O3.99,32.200
La1.85Sr0.15Cu0.995Zn0.005O4,32.200
Ru1Sr2Gd0.9Y0.1Cu2O8,32.200
Ru0.95Ti0.05Sr2Gd1Cu2O8,32.200
K0.8Fe1.76Se2,32.200
Ca10Pt4.1Fe9.9As18,32.200
La1.855Sr0.145Cu1O4,32.200
La1.81Sr0.19Cu1O4,32.100
Y2Ba4Cu7O14.46,32.100
Mg0.9Al0.1B2,32.100
Mg0.7Li0.3B2,32.100
Sr0.2La1.8Cu0.98Mn0.02O4,32.000
Sm0.1La1.7Sr0.2Cu1O4,32.000
Y1Ba2Cu2.64Fe0.36O7,32.000
Y0.6Pr0.4Ba2Cu3O6.9,32.000
La1.78Ba0.22Cu1O4,32.000
La1.85Sr0.15Cu1O4,32.000
Y1Ba2Cu2.64Fe0.36O7.12,32.000
La1.906Ba0.094Cu1O4,32.000
Ba0.6K0.4Bi1O3,32.000
La2Cu1O4.03,32.000
Nd1.3Ba1.7Cu3O7.14,32.000
La2Cu1O4.09,32.000
La1.875Sr0.125Cu1O4,32.000
Sr2Cu1C0.85B0.15O5,32.000
Bi1.95Sr1.75Pr0.3Cu1O4,32.000
Ba1K1Bi1O3,32.000
La2Cu1O4.08,32.000
La1.3Ba1.7Sr1Cu3O6.885,32.000
La1.8Sr0.2Cu1O4,32.000
Sr1.5Ba0.5Y1Cu2.8Ga0.2O6.96,32.000
La2Cu1O4.005,32.000
H0.2La1.8Sr0.2Cu1O4,32.000
Pb0.6Cu1Sr1La1O5.15,32.000
Cu6.5Sr2Ca5Cr0.5O15.17,32.000
Ba0.63K0.37Bi1O3,32.000
La1.85Sr0.038Ba0.112Cu1O4,32.000
Y0.6Pr0.4Ba2Cu3O6.96,32.000
La1.88Sr0.12Cu1O4,32.000
Eu1.5Ce0.5Ru1Sr2Cu2O10,32.000
La1.9Sr0.1Cu1O3.997,32.000
La1.81Sr0.19Cu1O4,32.000
Ru1Sr2Eu1Cu2O8,32.000
Tl1Sr1La1Cu1O5,32.000
Tl1Sr0.7Ca0.3La1Cu1O5,32.000
Tl1Sr1La1Cu1O8,32.000
La2Cu1O4.04,32.000
La2Cu1O4.05,32.000
Bi2Sr1.6La0.4Cu1O6,32.000
La1.835Nd0.04Sr0.125Cu1O4,32.000
La2Cu1O4.012,32.000
La1.13Pr0.72Sr0.15Cu1O4,32.000
La0.925Pr0.925Sr0.15Cu1O4,32.000
La1.87Sr0.13Cu1O4,32.000