formula,Tc
Y2C2Br2,5.000
Sr1Al1Si1,5.000
Ba8Si37Ge9,5.000
Cr0.1Nb0.9,5.000
Mo0.084Zr0.916,5.000
Rh0.035Zr0.965,5.000
Rh0.04Zr0.96,5.000
Sr0.2Mo1S2,5.000
Re2Th1,5.000
Pd0.1Ti0.9,5.000
Ga6Tb1,5.000
Np1Pd5Al2,5.000
La1,5.000
Mo1.905Hf0.095B1C1,5.000
Ba1Pt4Ge12,5.000
Ce1Fe0.85Co0.15As1O1,5.000
Ba0.9K0.1Fe2As2,5.000
Fe0.9Co0.1Se1,5.000
La1Fe1As0.6P0.4O1,5.000
Sr3Ir4Sn13,5.000
Tl2Mo6Se6,5.000
Th3Ni5C5,5.000
Ba1Fe1.75Zn0.14Co0.11As2,5.000
C1,5.000
Ba0.85Na0.15Ti2Sb2O1,5.000
Fe1Se0.82Br0.18,5.000
Fe1Se0.8Br0.2,5.000
Fe1Se0.7Br0.3,5.000
Nb0.9Mg0.1N0.87O0.13,5.000
La3Co1Ru3Sn13,5.000
Eu0.5La0.5F1Bi1S1.2Se0.8,5.000
Re24Zr5,5.000
Li0.5Cs1Sr2Nb3O10,5.000
Li0.1Rb1Ca2Nb3O10,5.000
Li0.1K1Ca2Nb3O10,5.000
Ta0.7Zr0.3B1,5.000
Zr1P1.2Se0.8,5.000
Ca3Ir4Sn13,5.000
Bi2Pd1,5.000
Hf0.4Lu0.6P1.45S0.55,5.000
Hg1Ba2Cu1O4.03,49.900
Y1Ba1.5Sr0.5Cu3O6.75,49.900
Nd1Ba1Sr1Cu3O7.02,49.900
Y1Ba1Sr1Cu2.8Sn0.2O7.12,49.800
Pr1Fe1As1H0.6O0.6,49.700
Y1Ba2Cu3O6.6,49.600
Sm1Fe1As1F0.25O0.7,49.600
Y1Ba2Cu3O6.41,49.500
Sm1Fe1As1F0.15O0.85,49.500
Y1Ba2Cu3O6.45,49.500
Y1Ba1.6La0.4Cu3O7.083,49.400
Sm1Fe1As1F0.12O0.88,49.350
Y1Ba1.6La0.4Cu3O7.11,49.300
Bi2Sr2Ca1Cu2I0.98O8.21,49.300
Y1Ba1Sr1Cu2.8Sn0.2O7.122,49.300
Y1Ba2Cu3.92Ni0.08O8,49.250
Ho1Fe1As1O0.85,49.100
Y1Ba2Cu2.8Fe0.2O6.93,49.000
Y1Sr2Cu2.75Re0.25O7.3,49.000
Y1Ba2Cu3O6.45,49.000
Y0.5Pr0.5Ba2Cu4O8,49.000
Y1Ba2Cu3.92Zn0.08O8,49.000
Pb0.5Cd0.5Sr1.5Ba0.5Ca0.5Y0.5Cu2O7,49.000
Ca1La1Ba1Cu2.97Fe0.03O7,49.000
Ba1.6Sr0.4Yb0.65Ca0.35Cu3O6.15,49.000
Tl1Sr2Ba2Cu2C2.7N0.3O7,49.000
Tl1Sr2Ba2Cu2C2.4N0.6O7,49.000
Tl1Sr2Ba2Cu2C0.8N0.2O10,49.000
Eu1.5Ce0.5Ru1Sr2Cu2O10,49.000
Y0.6Pr0.4Ba0.8Sr1.2Cu3O6.89,49.000
Y0.6Pr0.4Ba0.6Sr1.4Cu3O6.89,49.000
Tl1.89Ba2Cu1.11O6.18,49.000
Sm1Ba2Cu2.92Zn0.08O6.85,49.000
Y0.6Pr0.4Ba2Cu4O8,49.000
Ru1Sr2Gd1Cu2O8,49.000
Sm1Fe1As1F0.2O0.8,49.000
Ca0.875Pr0.125Fe2As2,49.000
C0.51Sr2Ca0.5Y0.5Cu2.42O6.92,48.900
Y1La0.2Ba1.8Cu3O7.06,48.900
Ba1.6Sr0.4Yb1Cu3O6.69,48.900
Sm0.89Th0.11Fe1As1O1,48.900
Y0.6Pr0.4Ba2Cu3O7,48.700
Y1Ba1.9La0.1Cu3.972Zn0.028O8,48.700
Ca0.6Nd0.4Ba1La1Cu3O7.1,48.600
Bi1.8Pb0.2Sr2Ca1Cu1.94Co0.06O8,48.600
Y1Ba2Cu3O6.48,48.500
Bi1.8Pb0.2Sr2Ca1Cu1.96Fe0.04O8,48.500
La3Ca0.4Cd0.6Ba3Cu7O16.336,48.500
Pr1Fe1As1O0.7,48.500
Gd1Fe1As1F0.2O0.8,48.350
Yb0.7Ca0.3Ba1.6Sr0.4Cu3O6.1,48.300
Nd0.9Pr0.1Ba2Cu3O6.85,48.300
Pr1Fe1As1O0.85,48.200
Ru0.8Sn0.2Sr2Gd1Cu2O8,48.100
Y1Ba2Cu3.88Fe0.12O8,48.050
Y1Ba2Cu2.9Fe0.1O6.92,48.000
Bi2Sr2Ca0.7Gd0.3Cu2O8,48.000
Bi2Sr2Ca0.7Y0.3Cu2O8,48.000
Y1Ba2Cu3O6.48,48.000
Y1Ba2Cu2.9Fe0.1O6.8,48.000
Er0.64Ca0.36Ba1.4Sr0.6Cu2.76Co0.24O6.8,48.000
Lu0.8Ca0.2Ba2Cu3O6.91,48.000
Nd1.6Pr0.4Ba4Cu7O14.603,48.000
La3.1Gd0.2Ca0.4Ba3.3Cu7O16.473,48.000
Cu2Ba1.6Sr0.4Yb0.65Ca0.35O6.15,48.000
Tl0.7Bi0.3Sr4Cu2C1O10,48.000
Tl1Sr1.6Cr0.4Cu1O5,48.000
La1.3Ba1.5Ca0.2Cu3O6.72,48.000
Ru1Sr2Gd1Cu2O8,48.000
Y1Ba2Cu3H0.48O7,48.000
Ru0.8Sn0.2Sr2Gd1Cu2O8,48.000
Y1Ba2Cu2.95Zn0.05O6.75,48.000
Hg1Ba2Cu1O4.033,48.000
Bi2Sr2Ca0.57Pr0.43Cu2O8,48.000
Gd1.15Ba1.85Cu3O6.99,48.000
Nd1Fe1As1F0.12O0.88,48.000
Nd1Fe1As1F0.11O0.89,48.000
Nd1Fe1As1F0.1O0.9,48.000
Ce1Fe1As1H0.22O0.78,48.000
Ce1Fe1As1H0.21O0.79,48.000
Y1Ba2Cu3H0.16O6.54,47.900
Fe0.5Ba1Sr1Er1Cu2.5O7.439,47.800
La1.75Ca1.25Cu2O5.99,47.700
Y1Ba2Cu2.85Zn0.15O6.85,47.600
Nd1.2Ba1.8Cu3O6.91,47.600
La1.7Pr0.3Ca0.6Ba2Cu4.6O10.886,47.600
Y0.7Pr0.3Ba2Cu3O6.88,47.500
La1.85Sr0.15Ca1Cu2O6.03,47.500
Y0.72Ca0.28Ba2Cu3O6,47.500
Y1Ba2Cu3.95Zn0.05O8,47.500
Ru1Sr2Gd1Cu2O8,47.500
Nd1Fe1As1F0.06O0.94,47.500
Y1Ba2Cu2.94Ni0.06O6.7,47.400
Bi2Sr2Ca1Cu2O8.329,47.300
Y1Ba2Cu3H0.31O6.54,47.300
Y1Ba2Cu3O6.45,47.300
Y1Ba2Cu2.7Zn0.3O6.92,47.200
Bi2Sr2Ca1Cu2O8.373,47.200
Y1Ba1.8La0.2Cu3O6.8,47.200
Ca0.88La0.12Fe1As1.8Sb0.2,47.200
Ca0.4Ba1.25La1.35Cu3O7.11,47.100
Y1Ba2Cu2.88Zn0.12O7,47.020
Sm1.2Ba1.8Cu3O6.965,47.000
Tl2Ba2Cu1O6.05,47.000
Y1Sr0.6Ba1.4Cu2.5B0.5O7,47.000
Y1Ba2Cu3O6.45,47.000
Sr2Cu1F2O2,47.000
Pb2Sr2Y0.85Ca0.15Cu3O8,47.000
Y1Ba2Cu2.94Fe0.06H0.4O7,47.000
Y0.6Ca0.4Ba1.1La0.9Cu3O7.18,47.000
Y1Ba2Cu3.938Zn0.062O8,47.000
Ca1Ba1La1Cu3O7,47.000
Ba1.6Sr0.4Yb1Cu3O6.64,47.000
Ba1.6Sr0.4Yb0.6Ca0.4Cu3O6.14,47.000
Ba1.6Sr0.4Yb0.6Ca0.4Cu3O6.04,47.000
Tl1Sr1.7Cr0.3Cu1O5,47.000
C1Ca3Cu2O7.1,47.000
Cu2C0.75Ca3O6.85,47.000
La2.1Yb0.2Ba2.1Ca0.4Cu5O11.802,47.000
Y0.6Pr0.4Ba2Cu3O6.88,47.000
Y0.6Pr0.4Ba1.8Sr0.2Cu3O6.85,47.000
Y1Ba2Cu3.95Zn0.05O8,47.000
Lu0.6Pr0.4Ba1.7Sr0.3Cu3O6.91,47.000
Sm1Ba2Cu2.8Fe0.2O6.96,47.000
Y1Ba2Cu3.98Zn0.02O8,47.000
La0.6Ca0.2Pr0.2Ba1.5Sr0.5Cu3O6.809,47.000
Ga1Sr2Tm0.65Ca0.35Cu2O7,47.000
Ce1Fe1As1F0.11O0.89,47.000
Ce1Fe1As1F0.12O0.88,47.000
Nd1Fe1As1F0.18O0.82,47.000
Sm1Fe1As1F0.1O0.9,47.000
Sm0.9U0.1Fe1As1O1,47.000
Nd1Fe1As1O0.9,46.900
Tb1Fe1As1O0.85,46.800
Sm1Fe1As0.95P0.05F0.12O0.88,46.800
Nd1Fe0.98Ru0.02As1F0.11O0.89,46.700
Bi4Sr3Ca2Tm1Cu4O16.73,46.500
Nd1Fe0.98Ru0.02As1F0.11O0.89,46.500
Ca0.3Ba1.45La1.25Cu3O7.05,46.400
Pr1Fe1As1F0.154O0.846,46.400
Sm1Fe1As1H0.4O0.6,46.400
Nd1Fe1As1F0.3O0.7,46.400
Y1Ba2Cu2.82Zn0.18O7,46.180
Ca0.2Ba1.55La1.25Cu3O7.07,46.100
Y2La0.8Ba3.2Cu6O14.2,46.000
Y1Ba2Cu2.82Co0.18O7,46.000
Y1Ba2Cu2.7Ni0.3O6.9,46.000
Y2Ba4Cu7O14.46,46.000
Y1Sr2Cu2.65Fe0.35O7.1,46.000
Sr2Cu1F2.33O2,46.000
Sr2Ba1Cu1F2O2,46.000
Y0.7Pr0.3Ba2Cu3O6.65,46.000
Er1Ba2Cu2.88Co0.12O6.78,46.000
Ba1.6Sr0.4Yb0.6Ca0.4Cu3O6.14,46.000
Sr2Cu1F2O2,46.000
Eu1.5Ce0.5Ru1Sr2Cu2O10,46.000
Y1Ba2Cu0.95Zn0.05O7.95,46.000
Yb0.6Pr0.4Ba1.7Sr0.3Cu3O6.93,46.000
Hg0.5Fe0.5Sr2Y0.6Ca0.4Cu2O6.7,46.000
Er1Ba2Cu2.78Zn0.18Fe0.03O6.93,46.000
Er1Ba2Cu2.85Zn0.06Fe0.09O6.96,46.000
Eu1Ba1.8Pr0.2Cu3O6.69,46.000
Y0.8Pr0.2Ba2Cu3.975Fe0.025O8,46.000
Nd1Fe1As1F0.16O0.84,46.000
Nd1Fe1As1F0.3O0.7,46.000
Ce1Fe1As1F0.3O0.7,46.000
Sm0.8U0.2Fe1As1O1,46.000
Na1Fe2Se2,46.000
Ca0.1Ba1.65La1.25Cu3O7.08,45.900
Gd1Fe1As1H0.3O0.7,45.900
Er0.6Pr0.4Ba2Cu3O7,45.800
Nd0.95Pr0.05Ba2Cu3O6.75,45.800
Ce1Fe1As1H0.6O0.6,45.800
Sm1Fe0.99Ni0.01As1F0.12O0.88,45.700
La1.25Ca0.15Ba1.6Cu3O7.052,45.600
Ce1Fe1As1H0.2O0.8,45.600
Y1Ba2Cu2.85Zn0.15O7,45.530
C0.5Sr2.01Ca0.44Y0.55Cu2.44O6.94,45.500
Y1Ba2Cu3O6.51,45.400
Y1Ba2Cu3.96Ni0.04O8,45.400
Y0.6Pr0.4Ba2Cu3O6.98,45.400
Y1Ba2Cu3O6.45,45.400
Ca0.891La0.109Fe2As2,45.400
Nd1Fe1As1F0.1O0.9,45.400
Tl2Ba2Cu1O6.19,45.300
Y0.6Pr0.4Ba2Cu3O6.95,45.300
Y0.6Pr0.4Ba2Cu3O6.929,45.300
Y0.6Pr0.4Ba2Cu3O7,45.300
La1.85Sr0.15Cu1O4,45.300
Ca0.858Pr0.142Fe2As2,45.300
La1.3Ba1.3Sr0.4Cu3O6.928,45.200
Y0.8Pr0.2Ba2Cu3O6.85,45.200
Fe0.5Ba1Sr1Ho1Cu2.5O7.462,45.200
La2Cu1O4.086,45.200
Y1Fe1As1O0.85,45.200
La1.2Ba1.3Sr0.5Cu3O6.943,45.100
Y1Ba2Cu2.87Al0.13O7,45.000
Y1Ba2Cu2.865Al0.135O7,45.000
Y1Ba2Cu2.8Ni0.2O6.82,45.000
Y1Ba2Cu2.8Zn0.2O6.79,45.000
Y1Ba2Cu2.7Zn0.3O6.74,45.000
La1Ba2Cu2.9O6.8,45.000
Y1Ba2Cu3O6.46,45.000
La1Ba2Cu2.9O6.82,45.000
La1.8Sr0.2Ca1Cu2O6,45.000
La1Ba1Ca1Cu2.9Ni0.1O6.85,45.000
Bi2Ca2.5Pr0.5Cu2O8.53,45.000
Y1Sr2Cu2.8W0.2O6.9,45.000
La2Cu1O4.11,45.000
Y2Tl2Sr2Cu3O11,45.000
Sm1Ba2Cu3O6.73,45.000
Y0.6Ca0.4Sr1.8Ba0.2Cu2Ga1O7,45.000
Hg0.8W0.2Ba2Cu1O4.4,45.000
Nd1.2Ba1.6Sr0.2Cu3O6.885,45.000
Tl1Sr1.8Ca0.2Yb1Cu2O7,45.000
La2Cu1O4.021,45.000
Lu0.7Ca0.3Ba2Cu3O6.88,45.000
Y0.84Sr2.16Cu2.78S0.22O7,45.000
Bi1.6Pb0.4Sr2Cu3Ca2O10.04,45.000
La2Cu1O4.093,45.000
Sr2Y1Ru0.5Cu0.5O6,45.000
Tl1Ba1.2La0.8Cu1O5,45.000
Y0.6Pr0.4Ba1.4Sr0.6Cu3O6.83,45.000
La2Cu1O4.06,45.000
La2Cu1O4.065,45.000
La2Cu1O4.075,45.000
La2Cu1O4.08,45.000
Y1Ba2Cu3F1.11O6,45.000
Hg1Ba2Cu1O4.07,45.000
Sm0.8Ca0.2Ba2Cu2.8Zn0.2O6.87,45.000
La1.3Ba1.5Ca0.2Cu3O6.92,45.000
Ru1Sr2Gd1Cu2O8,45.000
Y1Ba2Cu2.97Zn0.03O6.63,45.000
Y1Ba2Cu2.91Zn0.09O6.83,45.000
La0.65Ca0.15Pr0.2Ba1.5Sr0.5Cu3O6.84,45.000
Sr2Y1Ru0.9Cu0.1O6,45.000
Ru1Sr2Gd1.4Ce0.6Cu2O10,45.000
Y0.8Ca0.2Sr1Ba1Cu2.8B0.2O7,45.000
S2Ti1,45.000
Sm1Fe1As1F0.18O0.82,45.000
Tb0.9Th0.1Fe1As1O1,45.000
Sm1Fe1As1F0.2O0.8,45.000
Dy1Fe1As1F0.1O0.9,45.000
Pr1Fe1As1F0.11O0.89,45.000
Gd4Fe2As2Te0.92F0.8O3.2,45.000
Y1Ba2Cu3O6.45,45.000
Sm1Fe1As1H0.43O0.57,45.000
Sm1Ba2Cu3O6.73,44.900
Ce1Fe1As1H0.3O0.7,44.900
Y0.6Pr0.4Ba2Cu3O6.929,44.800
Sm1Ba2Cu3O6.554,44.700
Y0.74Ca0.26Ba2Cu3O6,44.700
Yb0.7Ca0.3Ba1.6Sr0.4Cu3O6.78,44.600
Y1Ba2Cu3.92Ni0.08O8,44.600
Y0.65Pr0.35Ba2Cu3O7.01,44.500
Gd1Ba1.8Pr0.2Cu3O7.01,44.500
Pr1Fe1As1O0.896,44.400
Y0.6Pr0.4Ba2Cu3O6.76,44.300
Y1Ba1.8La0.2Cu3O6.7,44.300
Ru1Sr2Eu1.5Ce0.5Cu2O10,44.300
Y1Ba2Cu3.925Fe0.075O8,44.200
Y1Ba1.54La0.46Cu3O7.118,44.100
Y0.9Pr0.1Ba2Cu3O6.6,44.100
La1.7Sr0.3Ca1Cu2O6,44.000
Y1Sr2Cu2.7Re0.3O7.2,44.000
Nd2Tl2Sr2Cu3O11,44.000
Y1Sr1Ba1Cu2.5B0.5O7,44.000
Dy0.9Ce0.1Ba2Cu4O8,44.000
Y1Ba2Cu2.9Ni0.1O6.77,44.000
Ca1La1Ba1Cu2.94Fe0.06O7,44.000
Sr0.9Nd0.1Cu1O2,44.000
Sr0.9Gd0.1Cu1O2,44.000
Sr0.9Sm0.1Cu1O2,44.000
Y1Ba2Cu2.94Zn0.06O6.77,44.000
Y0.6Pr0.4Ba1.6Sr0.4Cu3O6.87,44.000
Y1Ba1.8La0.2Cu4O8,44.000
Dy1Ba2Cu2.9Zn0.1O6.96,44.000
Y1Ba2Cu3.96Ni0.04O8,44.000
Er1Ba2Cu2.79Zn0.03Fe0.18O6.97,44.000
La0.9Pr0.1Ba1.5Sr0.5Cu3O6.904,44.000
Ru1Sr2Eu1.4Ce0.6Cu2O10,44.000
La1.85Sr0.15Cu1O4,44.000
Bi0.1Pb0.4La1.2Sr1.3Cu2O5.78,44.000
Pr1Fe1As1O0.6,44.000
Ce0.62Gd0.38Fe1As1F0.175O0.825,44.000
Pr1Fe1As1O0.7,44.000
Dy1Fe1As1O0.7,44.000
Y0.8Ca0.2Ba2Cu2.8Zn0.2O6.74,44.000
Li1Fe2Se2,44.000
Ca0.857La0.143Fe2As2,44.000
Pr1Fe1As1F0.1O0.9,44.000
Y1Ba2Cu2.8Fe0.2O6.8,43.900
Ca0.4Ba1.15La1.45Cu3O7.21,43.900
La1.3Ba1.5Sr0.2Cu3O6.901,43.800
Y1Ba2Cu3H0.53O6.54,43.800
Tb1Fe1As1O0.82,43.800
Sm1.28Ba1.72Cu3O7.03,43.600
Y1Ba2Cu3O6.47,43.600
Y0.85Ca0.15Sr1Ba1Cu2.5B0.5O7,43.600
Bi4Sr3Ca2Y1Cu4O16,43.500
Y1Ba2Cu2.85Zn0.15O7,43.500
Y1Ba2Cu2.95Fe0.05O6.69,43.500
Y1Ba2Cu3O6.58,43.500
Nd1.2Ba1.8Cu3O7.1,43.500
Y1Ba2Cu2.9Zn0.1O6.99,43.500
Y0.8Ca0.2Ba2Cu3O6.03,43.500
Fe1Sr2Y1Cu2O7.66,43.500
Sm1Fe1As1F0.3O0.7,43.500
Bi2Sr2Ca0.6Pr0.4Cu2O8,43.400
Sm1Fe1As1H0.066O0.934,43.300
Ru1Sr2Gd0.6Dy0.4Cu2O8,43.250
Y1Ba2Cu2.85Zn0.15O7,43.200
Y1Ba2Cu2.94Ni0.06O6.64,43.100
Y1Sr2Cu2.85Re0.15O6.95,43.100
Ba1.4Sr0.6Yb1Cu3O6.66,43.100
Ce1Fe1As1H0.4O0.6,43.100
Y1Sr2Cu2.8Re0.2O6.9,43.000
Y1Sr2Cu2.7Mo0.3O7.1,43.000
Y1Sr2Cu2.65Mo0.35O7.4,43.000
Y1Sr2Cu2.7Fe0.3O6.9,43.000
La1.9Sr0.1Ca1Cu2O6.03,43.000
Y0.8Zn0.2Ba2Cu3O7,43.000
Pr2Tl2Sr2Cu3O11,43.000
Sr0.92Sm0.08Cu1O2,43.000
Sr0.9La0.1Cu1O2,43.000
La2Cu1O4.12,43.000
Y0.85Ca0.15Ba2Cu2.85Zn0.15O6.85,43.000
Y0.8Ca0.2Ba2Cu2.8Zn0.2O6.73,43.000
Y0.9Ca0.1Ba1.6La6Cu3O7.18,43.000
Tl1Sr2Ca1Cu2O6.74,43.000
Tl1Sr2Ca1Cu2O6.58,43.000
Bi1.8Pb0.2Sr2Ca1Cu1.92Co0.08O8,43.000
Tl1Sr2Ba2Cu2C0.9N0.1O10,43.000
Tl1Sr1.8Cr0.2Cu1O5,43.000
La1.35Ba1.5Ca0.15Cu3O6.67,43.000
Eu1Ba2Cu2.85Ga0.15O6.76,43.000
Y1Ba2Cu2.88Ni0.12O7,43.000
Sr0.9Gd0.1Cu1O2,43.000
La1.85Sr0.15Cu1O4,43.000
Y1Ba1.8Cu2.8Co0.2O6.95,43.000
Bi1.6Sr0.4Yb0.65Ca0.35Cu3O6.075,43.000
Er1Ba2Cu2.73Zn0.24Fe0.03O6.92,43.000
Ru0.8Sr2Y1Cu2.2O7.8,43.000
Ru1Sr2Gd1Cu2O8,43.000
Ca1.8Cu1Cl2O2,43.000
Gd0.9Ca0.1Ba1Sr1Cu3O6.875,43.000
Nd0.8Th0.2Fe1As1O1,43.000
Fe2As2Ca4Mg0.75Ti2.25O7.5,43.000
Pr1Fe1As1F0.1O0.9,43.000
Ca0.85La0.15Fe1As1.98Sb0.02,43.000
Ca0.76Ce0.24Fe1As1.8Sb0.2,43.000
Ca0.76Pr0.24Fe1As0.9Sb0.1,43.000
Ca0.84Nd0.16Fe1As0.9Sb0.1,43.000
Y1Ba2Cu2.961Zn0.039O6.78,42.900
Y0.6Pr0.4Ba2Cu3O6.98,42.800
Li1Fe3Se2O2,42.800
Sr0.9La0.1Cu1O2,42.700
Sm1Fe0.95Ru0.05As1F0.15O0.85,42.700
Ce1Fe1As1O0.85,42.600
Sr0.9La0.1Cu1O1.96,42.500
Ba2Cu1O4,42.500
Sr0.95La0.05Cu1O2.01,42.400
Sr0.88La0.12Cu1O1.97,42.400
Ru1Sr2Gd1Cu2O8,42.400
Sm1Fe1As1F0.15O0.85,42.300
Sm0.9Pr0.1Ba2Cu3O6.85,42.200
K0.8Fe1.97Mn0.03Se2,42.200
Bi2Sr2Ca1Cu2O8.428,42.100
Y1Ba2Cu3H0.64O6.54,42.050
Y1Ba2Cu2.6Al0.4O7,42.000
Pb1Sr0.8Ba1.2Y0.7Ca0.3Cu3O8.41,42.000
Eu1.2Ba1.8Cu3O7.18,42.000
Y0.75Ca0.25Ba2Cu2.75Zn0.25O6.76,42.000
Y1Sr2Cu2.8Re2O7,42.000
La2.77Ca0.46Ba2.77Cu6O14.246,42.000
Y1Ba2Cu3O6.6,42.000
La2Cu1O4.11,42.000
Sr0.9La0.1Cu1O2,42.000
Y1Ba2Cu2.85Zn0.15O7,42.000
La2Cu1O4.06,42.000
La2Cu1O4.08,42.000
La2Cu1O4.09,42.000
Sm0.9Ca0.1Ba2Cu2.8Zn0.2O6.85,42.000
La1.85Sr0.15Cu1O4,42.000
La2Cu1O4.022,42.000
Er1Ba2Cu2.79Zn0.12Fe0.09O6.95,42.000
Eu0.5Sr0.5Ba1.6Pr0.1Cu3O7.07,42.000
Sr0.9La0.1Cu0.99Zn0.01O2,42.000
Gd1.2Ba1.8Cu3O7.03,42.000
Ga0.8Sr2Y0.6Ca0.4Cu2.2O7,42.000
Sm1Fe1As1F0.09O0.91,42.000
Tb1Fe1As1O0.85,42.000
Sm1Fe1As1F0.2O0.8,42.000
Fe2As2Ca4Mg0.75Ti2.25O7.5,42.000
Yb0.8Fe2Se2,42.000
Li0.84H1Fe1.14Se1O1,42.000
Y1La1.8Ba3.2Cu6O14.49,41.900
Ca0.1Ba1.65La1.25Cu3O7.06,41.900
Sr0.9La0.1Cu1O2,41.900
Y0.9Ca0.1Ba2Cu3O6.4,41.800
Sm1Fe1As1F0.15O0.85,41.800
Ca0.923Nd0.077Fe2As2,41.800
Sm1Fe1As1F0.15O0.85,41.700
Y1Ba2Cu3.92Mn0.08O8,41.600
La1.8Sr0.2Cu1O4,41.500
Tl1Ba1Sr1Cu1O5,41.500
La1Ba1Sr1Cu3O7.01,41.500
Y0.8Pr0.2Ba2Cu3O6.75,41.500
Sr0.9Pr0.1Cu1O2,41.500
C60,41.500
Sm1Fe1As1F0.1O0.9,41.500
Sm1Fe1As1F0.15O0.85,41.500
Ca0.5Nd0.5Ba1La1Cu3O7.17,41.400
Nb0.6Ru0.6Sr2Eu1.5Ce0.5Cu2O10,41.400
B2Mg0.988Sc0.012,41.400
Nd1Fe1As1F0.3O0.7,41.400
Y1Ba2Cu2.85Ni0.15O6.78,41.300
Nd0.85Pr0.15Ba2Cu3O6.85,41.300
Bi1.7Pb0.3Sr2Ca0.55Y0.45Cu1.94Zn0.06O8,41.300
Bi1.7Pb0.3Sr2Ca0.5Y0.5Cu2O8,41.300
La2Cu1O4,41.200
Y1Ba2Cu3O6.5,41.200
Dy0.6Pr0.4Ba2Cu3O6.9,41.200
La1.828Sr0.172Cu1O4,41.200
Y2Ba4Cu7O14.6,41.200
Ca0.835La0.165Fe2As2,41.200
Tl1Ba1.2La0.8Cu1O5,41.100
Y1Ba2Cu2.94Zn0.06O6.76,41.100
C0.48Sr2Ca0.4Y0.6Cu2.46O6.97,41.100
Ca0.2Ba1.55La1.25Cu3O7.05,41.100
Ce1Fe1As1H0.065O0.935,41.100
Gd1Ba2Cu2.7Fe0.3O6.9,41.000
Gd1Ba2Cu2.82Fe0.18O6.91,41.000
Bi2Sr2Ca0.5Y0.5Cu2O8,41.000
Bi2Sr2Ca0.6Pr0.4Cu2O8,41.000
Bi1.5Ga0.5Sr1.8Ca1.2Cu2O8,41.000
Bi1.6Pb0.4Sr4Cu2C1O11,41.000
Y0.6Ca0.4Sr2Cu2Ga1O7,41.000
Y0.7Ca0.3Sr1.5Ba0.5Cu2.8Cr0.2O7,41.000
Y0.6Ca0.4Sr2Ga1Cu2O7,41.000
La1.8K0.2Cu1O4,41.000
Nd1.2Ba1.4Sr0.4Cu3O6.789,41.000
Lu0.8Ca0.2Ba2Cu3O6.13,41.000
Nd1.4Pr0.6Ba4Cu7O14.541,41.000
Ba1.6Sr0.4Yb0.7Ca0.3Cu3O6,41.000
Cu5C0.5Sr2Ca1O10.8,41.000
La2.5Y0.5Ca1Ba3Cu6.16Fe0.84O16.634,41.000
Sm0.8Pr0.2Ba2Cu3O6.95,41.000
Y1Ba2Cu2.97Zn0.03O6.68,41.000
Yb0.55Pr0.45Ba1.7Sr0.3Cu3O6.88,41.000
Y1Ba2Cu2.97Li0.03O6.6,41.000
Eu0.7Pr0.3Ba2Cu3O6.66,41.000
Ru1Sr2Gd1Cu2O8,41.000
Ga0.9Sr2Y0.6Ca0.4Cu2.1O7,41.000
Mg1B1.8C0.2,41.000
Ce1Fe1As1F0.16O0.84,41.000
Sm1Fe1As1F0.15O0.85,41.000
La1.82Sr0.18Cu1O4,41.000
Ca0.84La0.16Fe1As1.99P0.01,41.000
Y1Ba1Sr1Cu2.75Sn0.25O7.163,40.900
Y1Ba1Sr1Cu2.75Sn0.25O7.16,40.900
La1.847Sr0.153Cu1O4,40.900
Li0.8Fe1.2Se1H1O1,40.900
Y1Ba2Cu3O6.37,40.870
Sr0.9La0.1Cu1O2,40.800
Y1Ba2Cu3.84Fe0.16O8,40.800
Ru1Sr2Gd1Cu2O8,40.750
Sr0.9La0.1Cu1O2,40.700
Nd0.85Pr0.15Ba2Cu3O7,40.700
Yb0.7Ca0.3Ba1.6Sr0.4Cu3O6.78,40.700
Ce1Fe1As1F0.16O0.84,40.700
Sr0.9La0.1Cu1O2,40.600
Y0.8Ca0.2Ba2Cu3O6.3,40.600
Ca0.8La0.2Fe1As1H1,40.600
Y1Ba2Cu3.92Zn0.08O8,40.500
La1Ba2Cu2.95Co0.05O6.94,40.500
Ru1Sr2Gd1Cu2O8,40.500
Y0.4Pr0.6Ba2Cu4O8,40.500
B2Mg1,40.500
Li1.84H1Fe1.14Se1O1,40.500
La2Cu1O4.07,40.400
Ce1Fe1As1F0.2O0.8,40.400
B2Mg1,40.360
Ru0.97Ti0.03Sr2Gd1Cu2O8,40.300
B2Mg1,40.250
B2Mg1,40.230
B2Mg1,40.210
B2Mg1,40.200
Ce1Fe1As1O0.7,40.200
La0.5Y0.5Fe1As1F0.15O0.85,40.200
Y1Ba2Cu2.94Ni0.06O6.6,40.100
Lu0.5Pr0.5Ba2Cu3O6.75,40.100
Ca0.4Ba1.35La1.25Cu3O6.98,40.100
Sm1Fe1As1O0.8,40.100
Nd1Fe0.98Co0.02As1F0.11O0.89,40.100
Y1Ba2Cu3O6.48,40.050
Y1Ba2Cu2.7Ni0.3O6.97,40.000
La1.85Sr0.15Cu1O4,40.000
Gd1Ba2Cu2.73Fe0.27O6.98,40.000
Y1Ba2Cu3O6.45,40.000
Bi2Sr2Ca0.5Y0.5Cu2O8.33,40.000
Y0.6Pr0.4Ba2Cu3O6.97,40.000
La2Cu1F1O4,40.000
Y1Ba2Cu3O6.53,40.000
Tl1Ba2Ca0.5Nd0.5Cu2O6.86,40.000
Sr0.84Nd0.16Cu1O2,40.000
Pb0.8Sr1Ba1.2Y0.7Ca0.3Cu3O7.59,40.000
Y1Sr2Cu2.8Mo0.2O7,40.000
La1.99Sr0.01Cu1O4.13,40.000
La1.98Sr0.02Cu1O4.09,40.000
La1.96Sr0.04Cu1O4.05,40.000
La1.25Ba1.75Cu3O7.07,40.000
C0.47Sr2Ca0.35Y0.65Cu2.48O6.96,40.000
Bi2Sr8Cu4C3O21,40.000
Sr2Cu1F2O2,40.000
Hg1Ba2Cu1O4.36,40.000
Nd1.2Ba1.4Ca0.4Cu3O6.888,40.000
La0.7Pr0.3Ca1Ba1Cu3O7,40.000
Y0.4Pr0.6Ba2Cu4O8,40.000
Pb0.5Tl0.5Sr4Cu2C0.9N0.1O10,40.000
La1Ba1Cu2.88Co0.12O7,40.000
Y1Ba2Cu3O6.54,40.000
La1.82Ca1.16Y0.02Cu2O6,40.000
Sr0.86Nd0.14Cu1O2,40.000
Sr0.84Nd0.16Cu1O2.01,40.000
Hg0.75Mo0.25Ba2Cu1O4.51,40.000
Tl2Ba2Cu1O6.056,40.000
La1.9Sr0.1Cu1O4.018,40.000
La1.9Sr0.1Cu1O4.023,40.000
La1.85Sr0.15Cu1O4.022,40.000
La1.85Sr0.15Cu1O4.03,40.000
Tl1Sr2Ca1Cu2O6.825,40.000
La1.8Er0.2Ba2Ca0.4Cu4.4O10.371,40.000
Y1Ba2Cu2.97Zn0.03O6.63,40.000
Eu0.6Pr0.4Ba2Cu4O8,40.000
Tl1Ba1.3La0.7Cu1O5,40.000
Y0.6Pr0.4Ba2Cu3O7,40.000
Hg1Ba2Cu1O4.37,40.000
Fe0.5Ba1Sr1Tm1Cu2.5O7.432,40.000
La1Ba1.5Ca0.5Cu3O6.79,40.000
La1.4Ba1.5Ca0.1Cu3O6.943,40.000
La1.5Ba1.1Ca0.4Cu3O6.969,40.000
La1.86Sr0.14Cu1O4,40.000
La0.7Ca0.1Pr0.2Ba1.5Sr0.5Cu3O6.862,40.000
Tl0.5Pb0.5Sr2Eu1.8Ce0.2Cu2O9,40.000
Eu1.4Ce0.6Ru1Sr2Cu2O10,40.000
La2Cu0.985V0.015O4.021,40.000
La2Cu0.975V0.025O4.032,40.000
La2Cu0.965V0.035O4.045,40.000
La2Cu0.955V0.045O4.056,40.000
Ga1Sr2Tm0.7Ca0.3Cu2O7,40.000
B2Mg1,40.000
Cs3C60,40.000
Sr2Ca4Cu5F2O10.57,40.000
Sm1Fe1As1F0.15O0.85,40.000
Ce1Fe1As1F0.12O0.88,40.000
La1Fe1As1F0.6O0.4,40.000
Ba2Ca1Cu2F2.2O3.8,40.000
Sr2V1Fe1As1O2.9,40.000
Nd1Fe0.9Ru0.1As1F0.11O0.89,40.000
Ca0.8La0.2Fe2As2,40.000
Ca8Mg1.5Ti4.5Fe2As2O9.5,40.000
Ca0.902Pr0.098Fe2As2,40.000
Sm4Fe2As2Te0.72F1.2O2.8,40.000
Li0.8Fe1.2Se1H1O1,40.000
K1Fe2Se2,40.000
Ca0.5Fe2Se2,40.000
Eu1Fe2Se2,40.000
Fe1Se1,40.000
Li0.8Fe1.2H1Se1O1,40.000
Li0.88Fe1.12Se1H1O1,40.000
Zr1P1.4S0.6,4.990
Ir3Th1,4.990
La1.72Sr0.28Cu1O4,4.980
Ba1Pt4Ge12,4.980
Bi2Pd1,4.980
Ir1Ti3,4.970
Zr2Co0.7Ga0.3,4.970
Zr0.75Y0.25P1S1,4.970
Pr1Fe0.95Co0.05As1O1,4.960
Nd1Bi1S2F0.5O0.5,4.950
Sr3Ir4Sn13,4.950
Nb0.92Ta0.71,4.940
La1,4.940
Ge1,4.940
Hf1Ru1As1,4.930
Ba1Ge2,4.930
Bi2Pd1,4.930
Bi2.95Y0.05S3O2,4.930
Pb1Mo6S2Se6,4.920
Ce0.84Y0.16Ru2,4.920
Cu0.005V0.995,4.920
Ru0.46V0.54,4.920
Zr0.9Mo0.1,4.920
H0.28Mo0.15Nb0.68Pd0.17,4.920
Nb0.31Re0.69,4.920
Cu0.445Sn0.555,4.910
Mo0.124Zr0.876,4.910
Mo0.07Zr0.93,4.910
Zr2Co0.75Ni0.25,4.910
Mg1C1Ni2.967Fe0.033,4.900
Ti0.573Nb0.161Si0.266,4.900
Li2B1Pd2.4Pt0.6,4.900
Ba1,4.900
Ge0.55Nb3.45,4.900
Nb0.04Zr0.96,4.900
Pd0.165Sb0.835,4.900
Re0.6W0.4,4.900
Re0.7W0.3,4.900
Ce1Ru2,4.900
Nb1.5Mo1.5Al1,4.900
Sc5Co4Si10,4.900
Tb0.25Er0.75Ni2B2C1,4.900
Er0.75Tb0.25Ni2B2C1,4.900
Nb0.69V0.31,4.900
Ta0.008V0.992,4.900
La1,4.900
Pd2Sn1Y1,4.900
Np1Pd5Al2,4.900
Sr1Ga1Si1,4.900
La2.9Ce0.1Ni2B2N2.7,4.900
Ba1Fe1.946Mo0.056As2,4.900
Li1Fe1P1,4.900
Pd0.184Sb0.816,4.900
Nd0.8Sm0.2Bi1S2F0.3O0.7,4.900
Nd0.8Sm0.2F0.3Bi1S2O0.7,4.900
Bi2S2F0.5O0.5,4.900
Ba1Pt4Ge12,4.900
Pd1Bi1.92Pb0.08,4.900
Hf1P1.55S0.45,4.900
Zr2Co0.75Cu0.25,4.890
Ce0.7Th0.3Ru2,4.890
Nb5Ir0.2Pt2.8O1,4.890
Ir0.283Nb0.717,4.880
Lu4.5Th0.5Ir4Si10,4.880
La0.7Th0.3,4.880
La1Ru1Cr0.21Si2,4.880
Zr0.6Y0.4P1S1,4.880
La1.8Nd0.2Cu0.99Zn0.01O4.063,4.870
Hf1V2H1,4.870
Bi3.875Ni0.125S3O4,4.870
La1,4.860
N1Ti1,4.860
Nb1.05Se2,4.860
Ta1Rh1P1,4.860
Th1Ir1.8Ru0.2,4.860
Pr0.95Sr0.05Fe1As1O1,4.860
Li1Fe1P1,4.860
Ca0.75Sr2.25Rh4Sn13,4.860
Fe0.008La0.992,4.850
Cu0.67Nb2S2C1,4.850
Sn0.7Mo3Se4,4.850
Pd0.074Ti0.926,4.850
Zr1P1.25S0.75,4.850
Nd1Bi0.99Pb0.01S2F0.3O0.7,4.850
Ba1,4.850
Hf0.7Lu0.3P1.45S0.55,4.850
N1Ta1,4.840
Y0.75Gd0.25Ni2B2C1,4.840
Lu0.8Gd0.2Ru1B2,4.840
Bi2Pd1,4.840
Ca0.75Sr2.25Rh4Sn13,4.840
Lu1.94Sc0.06Fe3Si5,4.830
Nd1Bi0.9Pb0.1S2F0.3O0.7,4.830
Al0.005V0.995,4.820
Pd0.15Ti0.85,4.820
H0.46Mo0.1Nb0.72Pd0.18,4.820
Sr1Pt1.8Pd1.2P1,4.820
Na0.31Co1H2.6O3.3,4.810
Na0.346Co1H2.6O3.3,4.810
La2.85Pr0.15Se4,4.810
Bi2Pd1,4.810
Hf0.8Lu0.2P1.55S0.45,4.810
Hf0.6Y0.4P1.55S0.45,4.810
Na0.35Co1H2.6O3.3,4.800
Sr2Ca12Cu24O41,4.800
Na0.3Co1H2.6O3.3,4.800
Y3Dy2Os4Ge10,4.800
Ti0.609Nb0.131Si0.260,4.800
Ti0.558Nb0.160Si0.282,4.800
Nb0.480Mo0.066Si0.454,4.800
Ba1,4.800
As1Ga1,4.800
C13La1,4.800
C1Ta0.4Ti0.6,4.800
Cu1Rh2S4,4.800
Nb0.8Ru0.2,4.800
Hf1Re2,4.800
C1Hf0.5Nb0.5,4.800
In1Sb1,4.800
Na0.2Ba6Si46,4.800
Lu1Ni1.85Co0.3B2C1,4.800
Ho1Ni1.99Co0.02B2C1,4.800
Dy1Ni2B2C1,4.800
Er0.8Tb0.2Ni2B2C1,4.800
B1Re3,4.800
Cr0.01V0.99,4.800
Nb4.4Re1,4.800
Rh0.02Zr0.98,4.800
Rh0.05Zr0.95,4.800
Lu5Ir1.2Rh2.8Si10,4.800
Pd0.15Zr0.85,4.800
Ge1Nb3,4.800
La3Ru1Pd3Ge13,4.800
La0.9Ce0.1Ru4P12,4.800
Th1Pt4Ge12,4.800
La1Fe1P1O1,4.800
Mg10.5Ir19B17.1,4.800
Pb1.14Nb3Se7.14,4.800
Rb0.16W1O3,4.800
Sc2Fe3Si5,4.800
Pb0.35Sn0.35In0.3Te1,4.800
Cr2Re3B1,4.800
Rb2Cr3As3,4.800
La1Fe1As0.6P0.4O1,4.800
Hf1Te5,4.800
La1Ru2.814Ni0.186Si2,4.800
Nd1Bi1S2F0.5O0.5,4.800
Nd1F0.5Bi1S2O0.5,4.790
Bi3.875Co0.125S3O4,4.790
Ca1Al0.7Ga0.3Si1,4.780
Cr0.008V0.992,4.780
Nd1Bi1S2F0.5O0.5,4.780
Nd1F0.5Bi1S2O0.5,4.780
Nd1F0.7Bi1S2O0.7,4.780
Zr0.926Lu0.074B12,4.780
Ce0.8La0.2Ru2,4.770
La2.4S4Y0.6,4.770
Zr0.935Lu0.065B12,4.770
Bi3.875Mn0.125S3O4,4.770
K1Cr3As3,4.770
Nb0.14Ta0.86,4.760
Lu0.9Tb0.1Ru1B2,4.760
Ba0.87Nd0.13Fe2As2,4.760
Na0.28Co1H2.6O3.3,4.750
Bi2Cs1,4.750
Ir1.05Nb0.95,4.750
Mo2Zr1,4.750
Re24Zr5,4.750
Re3Ta1,4.750
Ir1.15Nb0.85,4.750
Sr1Ga1.2Si0.8,4.750
Cu1Rh2S4,4.750
Si0.005V0.995,4.750