formula,Tc
C1,4.750
Sn0.6In0.4Te1,4.750
Nd1Bi1S2F0.7O0.3,4.750
Bi3.9Mn0.1S3O4,4.750
Hf0.7Lu0.3P1.55S0.45,4.750
B1Mo2,4.740
Ce1Ru1.99Co0.01,4.740
Cu0.01V0.99,4.740
Mo0.065Zr0.935,4.740
Hf0.6Y0.4P1.45S0.55,4.740
Sr1Ga0.9Si1.1,4.730
Th0.9La0.1Ru2,4.730
Pd0.18Ti0.82,4.730
Mg1C1Ni2.9Ru0.1,4.720
Pb3Y1,4.720
Ti0.564V0.376Ru0.06,4.720
Cu1Rh2S4,4.720
Bi2Pd1,4.720
Li0.62Cs1Ca2Nb3O10,4.710
Ir3Th1,4.710
Ag1Sn1Se2,4.710
V0.843Ge0.099Sb0.059,4.710
Pd0.2Ti0.8,4.710
Ca3Rh4Sn13,4.710
La1.75Sr0.25Cu0.97Ni0.03O4,4.700
Eu1.758Gd0.092Ce0.15Cu1O4,4.700
Na0.35Co1H2.6O3.3,4.700
Na0.3Co1H2.6O3.3,4.700
Na0.25Co1H2.6O3.3,4.700
Na0.35Co1H1.4O2,4.700
Lu5Ir4Si9.9Ge0.1,4.700
Na0.33Ta1S2,4.700
Ti0.530Nb0.158Si0.313,4.700
Nb0.580Si0.383Ge0.037,4.700
Nb0.478Si0.316B0.205,4.700
La3Ir2Ge2,4.700
Dy0.9Tb0.1Ni2B2C1,4.700
B12Y1,4.700
Ba1,4.700
Fe0.08Nb0.05Ti0.87,4.700
Ge1Ir1,4.700
Os2Y1,4.700
Re0.75Ta0.25,4.700
Ti0.775V0.225,4.700
Nb1Se2,4.700
Mo0.5Re0.5,4.700
V2.808Re0.192Si1,4.700
Cu1Rh2S4,4.700
B1Re3,4.700
Y1Re1B1C1,4.700
Y2Br1.75Cl0.25C2,4.700
Ag1Sn1Se2,4.700
Rb0.2W1O3,4.700
Sr1Al1Si1,4.700
Pr1Fe0.95Co0.05As1O1,4.700
Mg12Ir19B16,4.700
Y1Pd2Sn1,4.700
Nd1Bi1S2F0.5O0.5,4.700
Bi4S3O4,4.700
Ir0.93Te2,4.700
Nd1F0.3Bi1S2O0.7,4.700
La0.8Y0.2Fe0.965Mn0.035As1F0.11O0.89,4.700
Sr2.5Sn1O1,4.700
Zr4Rh2O1,4.700
Ag0.12In0.88,4.690
Ce0.97Gd0.03Ru2,4.690
Th1Rh4B4,4.690
Lu1Os3B2,4.690
Mo0.229Ru0.327P0.444,4.680
Nb2S1C0.85,4.680
Ho1Rh2.6Ru1.4B4,4.680
Nb0.8W0.2,4.680
Ir0.95Te2,4.680
Ce0.1Nd0.9F0.5Bi1S2O0.5,4.680
Ce0.1Nd0.9Bi1S2F0.5O0.5,4.680
Ru0.4W0.6,4.670
La0.5Th0.5Sn3,4.670
Nb0.16Ta0.84,4.670
Pb0.4Tl0.6,4.670
Bi3.925Mn0.075S3O4,4.670
Cr0.1Nb0.9,4.660
Si0.01V0.99,4.660
H0.75Nb0.85Pd0.15,4.660
Ag1Sn1Se2,4.660
Nd0.4Sm0.6F0.3Bi1S2O0.7,4.660
Al0.18La0.82,4.650
Ce0.001La0.999,4.650
Bi0.05In0.95,4.650
Nb0.17Ta0.83,4.650
La0.99Nd0.01,4.650
Hf1Ru1As1,4.650
Fe0.098Ga0.198V0.704,4.650
Nd0.8Sm0.2Bi1S2F0.7O0.3,4.650
Re3Ta1,4.650
Sr3Rh4Sn13,4.650
La0.984Lu0.016,4.643
Nb0.2Ta0.8,4.640
Dy1Ir2Rh2B4,4.640
Pd0.05Ti0.95,4.640
La0.933Gd0.067Sn3,4.640
Er1Ni1.92Fe0.08B2C1,4.630
Hf1P1.5S0.5,4.630
Si3Y1,4.630
Mo0.815Pt0.185,4.620
Lu1Os3B2,4.620
Th1Pt4Ge12,4.620
La0.8Ce0.2Ru3Si2,4.620
Ta0.9Zr0.1B1,4.620
Bi2Pd1,4.620
Nb0.464Ta0.079Rh0.457,4.615
Na0.75Co1H2.6O3.3,4.610
La3Te4,4.610
Li0.98Fe1.02As1,4.610
Pr0.915Ce0.085Pt4Ge12,4.610
Zr1P1.1Se0.9,4.610
Y0.5Pr0.5Ba2Cu3O6.61,4.600
La1.8Sr0.2Cu0.96Zn0.04O4,4.600
Na0.35Co1H2.6O3.3,4.600
Na0.26Co1H2.6O3.3,4.600
Ti0.678Nb0.075Si0.248,4.600
Au0.167Pd0.166Te0.667,4.600
B1Re2,4.600
C3Er1Th1,4.600
Ir1.15Nb0.85,4.600
Os2Sc1,4.600
Pb3Zr5,4.600
Re0.25W0.75,4.600
P0.95Zr1,4.600
Nb2.49V0.51Au1,4.600
Nb3Rh0.7Au0.3,4.600
C1Ta0.2Zr0.8,4.600
Ce0.005La0.995,4.600
V0.524Ti0.446Ta0.030,4.600
Y0.65Tb0.35Ni2B2C1,4.600
Dy1Ni2B2C1,4.600
Ca1Al1.4Si0.6,4.600
Cu1.5Rh1.5S4,4.600
Zr0.176V0.630Nb0.194,4.600
Th1Er1C3,4.600
Mo1.7Ta0.3B1C1,4.600
Ba1Fe1.66Zn0.12Co0.22As2,4.600
Lu2Ir3Si4.25Ge0.75,4.600
Lu2Ir2.97Rh0.03Si5,4.600
Ba1Ti2Bi2O1,4.600
Au0.111Pd0.204Te0.685,4.600
Sr1Pt2As2,4.600
La3Co4Sn11.7In1.3,4.600
K1Mo1S2,4.600
Nb0.95Ni0.05B2,4.600
Na0.75Co1Ir0.001H2.6O3.3,4.590
Pb1S1Se1,4.590
Nd0.8Sm0.2F0.3Bi1S2O0.7,4.590
Nb0.15Ta0.85,4.580
Al1Gd0.003La3,4.580
La1Ru2.94Fe0.06Si2,4.580
Nd0.6Sm0.4Bi1S2F0.7O0.3,4.580
La0.59Rh4P12,4.580
Mo0.2Nb0.8,4.570
Sn0.005V0.995,4.570
Cr0.013V0.987,4.570
Mo2Zr1,4.570
Mo0.8Pt0.2,4.560
La1Fe0.875Ir0.125As1O1,4.560
Th1Pt4Ge12,4.560
B2Nb0.8,4.550
Pd2Y1Sn1,4.550
V0.504Ti0.482Ta0.014,4.550
Ce0.84Y0.1Gd0.06Ru2,4.550
Th0.8Nd0.2Ru2,4.550
Nb0.1Ta0.9,4.550
Ta0.035V0.965,4.550
Dy0.9Tm0.1Ni2B2C1,4.550
Ag1Sn1Se2,4.550
La1Bi1S2F0.9O0.54,4.550
V2.4Mo0.6Si1,4.540
Nb0.08Ta0.92,4.540
N0.8V1,4.540
Ru0.47V0.53,4.530
Sc5Co4Si10,4.530
Mo0.81Pt0.19,4.530
Dy1Rh2Ir2B4,4.530
Pb0.928Sn0.232Ti2Se5.16,4.530
Hf0.7Y0.3P1.45S0.55,4.530
Re0.76V0.24,4.520
Sc2Fe3Si5,4.520
Co0.007V0.993,4.520
Lu1.94Dy0.06Fe3Si5,4.520
La1Fe1As1F0.2O0.8,4.520
Ba1Ti2Sb0.4Bi1.6O1,4.520
Bi1Te1Cl1,4.520
Hf0.7Y0.3P1.55S0.45,4.520
V0.488Ti0.509Ta0.003,4.510
Ho1Ni1.95Co0.03B2C1,4.510
Ca1Al0.6Ga0.4Si1,4.510
Ce0.86Tb0.14Ru2,4.510
In0.9Pb0.1,4.510
Nb0.037Ta0.963,4.510
La1.943Sr0.057Cu1O4,4.510
La1Bi1S2F0.5O0.5,4.510
La1Ru2.94Fe0.06Si2,4.510
V0.486Ti0.512Ta0.001,4.505
La1.87Ba0.13Cu0.99Ga0.01O4,4.500
Ba0.6K0.4Bi0.925Pr0.075O3,4.500
Ba0.47K0.53Bi0.979Pr0.021O3,4.500
Na0.75Co1H2.6O3.3,4.500
Na0.3Co1H2.8O3.4,4.500
Na0.22Co1H1.8O2.85,4.500
Mg0.9Zn0.1C1Ni3,4.500
Nb0.488Si0.323C0.189,4.500
Sc4Rh6Sn19,4.500
Au0.2B5Mo1.8,4.500
Ba1,4.500
Bi1Nb3,4.500
Nb0.9Re0.1,4.500
S1.1Zr1,4.500
Nb0.32Re0.68,4.500
C1Hf0.6Nb0.4,4.500
Ti0.516V0.484,4.500
Cu1.5Rh1.5S4,4.500
Lu4.95Sc0.05Ir4Si10,4.500
Ca1Al1.3Si0.7,4.500
La0.99Sm0.01,4.500
Rh0.01Zr0.99,4.500
Sc2Fe3Si5,4.500
As1Ga1,4.500
Nb0.9Mg0.1B2,4.500
Nb0.75Mg0.25B2,4.500
Lu2Fe3Si5,4.500
Th1Rh4B4,4.500
Ho5Os4Si15,4.500
Na0.33H2.86Co1O3.42,4.500
Mg0.9Zn0.1C0.98Ni3,4.500
Fe1Te0.8S0.2,4.500
Y2Al1Ge3,4.500
Ba0.75Na0.25Ti2Sb2O1,4.500
Au0.075Sb0.85Te0.075,4.500
Ce1Bi1S2F0.7O0.3,4.500
Bi3S3O2,4.500
Nd1Bi1S2F0.5O0.5,4.500
Nd1F0.5Bi0.84S2O0.5,4.500
Gd1Sm1Ni2,4.500
Ba7.7Eu0.3Al5Si41,4.500
Sn1As0.9Se0.1,4.500
Li0.25Sr2Cu1I2O2,4.500
Ce0.6Th0.4Ru2,4.500
Na0.75Co1H2.6O3.3,4.490
Zr1V1.7Fe0.3,4.490
Tc0.65V0.35,4.490
Ir0.28W0.72,4.490
Al0.01V0.99,4.490
Er0.03La0.97,4.490
Ir0.85Rh0.1Te2,4.490
Zr0.926Lu0.074B12,4.490
Mo6Se7S1,4.480
Ta1,4.480
Pr0.8Sr0.2Fe0.7Co0.3As1O1,4.480
Ba2Bi3,4.480
Ce0.2Nd0.8Bi1S2F0.5O0.5,4.480
Ce0.2Nd0.8F0.5Bi1S2O0.5,4.480
La0.2Th0.8Ir3,4.480
Hf0.6Lu0.4P1.45S0.55,4.480
Nb0.016Ta0.984,4.470
Nb0.04Ta0.96,4.470
Ta0.1V0.9,4.470
Mo0.04Zr0.96,4.470
Sm1Fe1As1F0.1O0.9,4.470
Bi4S3O4,4.470
Bi2Pd1,4.470
Sn1,4.460
Ir0.28W0.72,4.460
La1Tl0.24Pb2.76,4.460
Zr0.190V0.680Nb0.130,4.460
Ta0.057V0.943,4.460
Sc2Fe3Si5,4.460
La1Bi1S2F0.7O0.54,4.460
Ba2Bi2.75Sb0.25,4.460
Ce1Bi1S2F0.6O0.4,4.460
Ta4Pd3Te16,4.460
Ce0.2Nd0.8F0.5Bi1S2O0.5,4.460
Sn0.55In0.45Te1,4.460
La0.9Th0.1Ni1C2,4.450
Cu1S4V2,4.450
In0.97Pd0.03,4.450
Cu0.025V0.975,4.450
Cu1V2S4,4.450
Th0.9La0.3Ru2,4.450
Nb0.05Ta0.95,4.450
Mg10Ir19B16,4.450
B2Nb1,4.440
H0.37Mo0.1Nb0.72Pd0.18,4.440
Bi2.95La0.05S3O2,4.440
Al0.2La0.8,4.430
Nb2S1C0.82,4.430
Ta1,4.430
Bi2S2F0.1O0.9,4.430
Pr1Pt4Ge11.5Sb0.5,4.430
La2.925Ce0.075In1,4.420
Au1Pb2,4.420
Ta1,4.420
Nb1Rh1P1,4.420
Ba1Pb0.45Hg0.3Bi0.25O3,4.420
Ce0.2Nd0.8F0.5Bi1S2O0.5,4.420
Hf0.5Y0.5P1.45S0.55,4.420
N0.99Ti1,4.410
Ta1Rh1P1,4.410
Th1Ir1.4Os0.6,4.410
Th1Rh4B4,4.410
Er0.8Gd0.2Rh4B4,4.410
La1Ni0.84Bi2.04,4.410
Bi4S3O4,4.410
La1.85Sr0.15Cu0.976Co0.024O4,4.400
La1.875Ba0.125Cu1O4,4.400
Sm0.7Pr0.3Ba2Cu3O6.85,4.400
Na0.22Co1H1.8O2.85,4.400
Mg10Ir19B16,4.400
C60Sr4,4.400
Nb0.579Si0.421,4.400
Cu1.3K0.2Co1.5S4,4.400
Ta1,4.400
Na0.1Ta1S2,4.400
Au1Pb3,4.400
B12Yb0.01Zr0.99,4.400
Bi0.26Tl0.74,4.400
Os0.74W0.26,4.400
Nb1Se0.25Te0.75,4.400
Tm1Ni1.92Co0.16B2C1,4.400
La2Rh3Si5,4.400
Y2Br1.5Cl0.5C2,4.400
Ca1Al1.25Si0.75,4.400
Cs0.1W1O2.9F0.1,4.400
As2Te3,4.400
Al1Sc1Au2,4.400
Co1La3,4.400
Ta1Re1Si1,4.400
Y0.6La0.4B6,4.400
Ca1Ga1Si1,4.400
Bi4S3O4,4.400
Ba2Bi3,4.400
Nb2B1N1,4.400
Cs0.96Bi4Te6,4.400
Cs1Bi4.1Te5.9,4.400
Sn0.5In0.5Te1,4.400
Nd1F0.5Bi1S2O0.5,4.400
Sn1As0.87Se0.13,4.400
Sc5Rh6Sn18,4.400
Bi1.8Pb0.2Pd1,4.400
Pd1Bi1.85Pb0.15,4.400
Zr2Co0.7Cu0.3,4.390
Bi3.925Co0.075S3O4,4.390
Na0.75Co1Ga0.001H2.6O3.3,4.380
Al0.046In0.151Sn0.803,4.380
Tm1Ir2Rh2B4,4.380
Er0.2Y0.8Pd2Sn1,4.380
Th1Co0.9Ni0.1C2,4.380
Pd2Y0.9Yb0.1Sn1,4.370
La0.951Lu0.049,4.370
Nd1Bi1S2F0.5O0.5,4.370
In0.9Pb0.1,4.360
Zr0.246V0.601Nb0.153,4.360
Pd1Te1,4.360
Li2Pd1.5Pt1.5B1,4.360
Zr1P1.6S0.4,4.360
Bi2Pd1,4.360
Nb0.589Ta0.101Ir0.310,4.350
Nb0.563Si0.437,4.350
N0.99Ti1,4.350
Lu0.418Dy0.582Ni2B2C1,4.350
Rh1Se2,4.350
La1Rh1Si1,4.350
Bi2Te3,4.350
Nd1Bi1S2F0.6O0.4,4.350
Zr0.184V0.655Nb0.160,4.340
Th1Rh4B4,4.340
La2.82Pr0.18S4,4.330
Ta1,4.330
La0.984Ce0.016Sn3,4.330
Lu1.9Sc0.1Fe3Si5,4.330
Ir0.75Rh0.2Te2,4.330
Pb1.2Mo6Se8,4.320
La1Fe0.98Zn0.02As1O0.85,4.320
Er1Ni1.9Fe0.1B2C1,4.310
Ta1,4.310
Lu0.6Tm0.4Ru1B2,4.310
Ce0.2Nd0.8Bi1S2F0.7O0.3,4.310
Bi3.99Ag0.01S3O4,4.310
Sn0.1Bi1.1Sb0.9Te2S1,4.310
Nd1.85Ce0.15Cu0.994Co0.006O4,4.300
Y1Ba2Cu2.9Ni0.1O6.56,4.300
Y1Ba2Cu2.9Zn0.1O6.88,4.300
Eu1.831Y0.018Ce0.15Cu1O4,4.300
Y2Ba4Cu7O14.03,4.300
Na0.31Co1H2.6O3.3,4.300
Na0.3Co1H2.6O3.3,4.300
Al0.22La0.78,4.300
Rh1Zr3,4.300
Te1,4.300
B5Mo0.2Nb1.8,4.300
H0.87Pd1,4.300
Ir0.1Ti0.9,4.300
Nb0.5V1.5Zr1,4.300
Pt0.05Rh0.04Ti0.91,4.300
Ta0.15Zr0.85,4.300
V0.45Nb0.5Zr1,4.300
Hf5Re24,4.300
Ta0.05V0.095,4.300
Nb0.171Ti0.664Mo0.166,4.300
Lu0.4Dy0.6Ni2B2C1,4.300
Lu0.05Dy0.95Ni2B2C1,4.300
Nd1.72Ta3.28S2,4.300
Y0.15Dy0.85Ni2B2C1,4.300
Ba1Sn3,4.300
Th1Rh4B4,4.300
Er1Rh4B4,4.300
Pb1Mo6S5Se3,4.300
Ca1Ga1Si1,4.300
V0.746Sb0.179Al0.075,4.300
La2.955Gd0.045In1,4.300
La1Ru2,4.300
Nb0.15V0.85,4.300
Mo15Se19,4.300
Rh0.25Zr0.75,4.300
H0.64Nb0.85Pd0.15,4.300
Sr3Rh4Sn13,4.300
Sc1Fe3Si5,4.300
Dy1Rh1.6Ir2.4B4,4.300
Ba1Fe1.872Co0.042Cu0.086As2,4.300
La1Pt1Si1,4.300
Ca10Pt3.213Fe9.787As18,4.300
Ta4Pd3Te16,4.300
Sb2Te3,4.300
Sn1As0.95Se0.05,4.300
Sn1As0.93Se0.07,4.300
Nb0.97Ni0.03B2,4.300
Pr1Bi1S2F0.5O0.5,4.290
Ce0.2Nd0.8F0.7Bi1S2O0.7,4.290
Co1La3,4.280
Te1,4.280
Si1Ta1,4.280
La0.3Nd0.7Pt2.1B2.4C1.2,4.280
Rh0.106Ti0.894,4.280
Ta0.15Zr0.85,4.280
La0.92Gd0.08Sn3,4.280
Mo2Zr1,4.270
Nb2Pd1S4.5Se0.5,4.270
Sn0.6In0.4Te1,4.270
Rh0.01Zr0.99,4.260
Sm1Fe0.5Ru0.5As1F0.15O0.85,4.260
Bi3.875Co0.125S3O4,4.260
Au1Tl2,4.250
Bi1Ni1,4.250
Bi2Pd1,4.250
Bi2Rb1,4.250
Bi2Pb1,4.250
Au1Pb3,4.250
In0.92Sn0.08,4.250
Nb0.5V0.5,4.250
Ge1Mo3,4.250
La0.9Y0.1Co2B2,4.250
Nd1Bi1S2F0.7O0.3,4.250
Ba0.95Rb0.05Ti2Sb2O1,4.250
Ba0.95K0.05Ti2Sb2O1,4.250
Ba2Bi2.5Sb0.5,4.250
Ca1Si3,4.250
Bi3.875Co0.125S3O4,4.250
Ga1Sb1,4.240
Sr1Ga0.8Si1.2,4.240
Rb0.18W1O3,4.240
Nd1Bi1S2F0.1O0.9,4.240
Ba0.9Na0.1Ti2Sb2O1,4.240
Pb0.4Sn0.4In0.2Te1,4.240
Au0.2La0.8,4.230
Nb0.547Si0.453,4.230
Mo0.2Nb0.8,4.230
Sn0.4Pb0.4In0.2Te1,4.230
La0.992Sm0.008,4.220
Ga0.198Mn0.141V0.661,4.220
Ce0.32Th0.68Ir3,4.220
Na0.28Co1H2.6O3.3,4.210
N0.62Pt0.38,4.210
Nb0.6Rh0.4,4.210
Nb0.62Pt0.38,4.210
Sn0.01V0.99,4.210
Ta1,4.210
Pb0.42Sn0.42In0.16Te1,4.210
La0.4Sm0.6Bi1S2F0.5O0.5,4.210
La1.85Sr0.15Cu0.95Ni0.05O4,4.200
La1.87Ba0.13Cu1O4,4.200
La1.65Ba0.35Cu1O4,4.200
La1.6Ba0.4Cu1O4,4.200
Y1Ba2Cu2.9Fe0.1O6.62,4.200
Na0.3Co1H2.6O3.3,4.200
Na0.35Co1H2.6O3.3,4.200
Mo1N1,4.200
La1Fe4P12,4.200
La0.2Th0.8Ni1C2,4.200
Ga1Sb1,4.200
Al1Nb2Ni1,4.200
Bi3In5,4.200
Bi1Sn1,4.200
Ga0.71V0.29,4.200
H0.11S2Ta1,4.200
Hg1Sn1,4.200
In0.913Pb0.087,4.200
K0.5Mo1O3,4.200
Nb0.925Ru0.075,4.200
Ru0.452V0.548,4.200
Re2Sc1,4.200
Nb1.2Mo1.8Al1,4.200
Bi1Pd2,4.200
C1Nb0.1Zr0.9,4.200
Cd0.97Pd0.03,4.200
Hf0.76Nb0.25,4.200
Er1Ni1.96Co0.08B2C1,4.200
Sr1Ga0.74Si1.26,4.200
Sr1Al1Si1,4.200
Y0.77Gd0.23Ni2B2C1,4.200
Y0.75Gd0.25Ni2B2C1,4.200
Zr2Co0.6Ni0.4,4.200
Sn1.1Mo6Se7.5,4.200
Mo6Se5I3,4.200
La3Ru1,4.200
Ir0.42Nb0.58,4.200
Ge1P1,4.200
Pd0.04Ta1S2,4.200
Cu0.04Ta1S2,4.200
Ba1Ga1Si1,4.200
Sr3Rh4Sn13,4.200
Tl2Mo6Se6,4.200
Ca1Ga1Si1,4.200
Bi4S2.97Se0.03O4,4.200
Ce1Ni0.8Bi2.03,4.200
Pr1Ni0.79Bi1.98,4.200
Nd1Ni0.72Bi2.14,4.200
Sm1Ni0.78Bi2.08,4.200
Gd1Ni0.72Bi1.91,4.200
Tb1Ni0.74Bi1.9,4.200
Dy1Ni0.74Bi1.78,4.200
Ce1Ni0.8Bi2,4.200
Fe1Sr2Nd1Cu2O7.54,4.200
La0.4Sm0.6Bi1S2F0.5O0.5,4.200
Nd1Bi1S2F0.5O0.5,4.200
Bi3.97Ag0.03S3O4,4.200
Bi4I4,4.200
Se1Sn1,4.200
Na0.75Co0.999Ga0.001H2.6O3.3,4.190
Cu0.555Sn0.445,4.190
Pb0.32Sn0.48In0.2Te1,4.190
Pb1.044Sn0.116Ti2Se5.16,4.190
Cr0.66Re0.34,4.190
Mo0.16Ti0.84,4.180
Cr0.152Ti0.848,4.180
La0.908Tm0.092Sn3,4.180
Bi0.1Sn0.9,4.180
Er0.76Gd0.24Rh4B4,4.180
Sn0.42Pb0.42In0.16Te1,4.180
Cu0.08Ti1Se2,4.180
Sr3Rh4Sn13,4.180
Tc0.6V0.4,4.170
Nb0.6V0.4,4.170
Cu0.081Ti1Se2,4.170
Pb0.43Sn0.43In0.16Te1,4.170
Rb0.2W1O3,4.160
Hg1,4.160
Cu0.06Ta1S2,4.160
Lu1.9Y0.1Fe3Si5,4.160
Sn0.48Pb0.32In0.2Te1,4.160
Cu0.08Ti1Se2,4.150
Bi0.26Tl0.74,4.150
Ge0.045Nb0.955,4.150
Y2Br1.25Cl0.75C2,4.150
Mo0.059Zr0.941,4.150
Bi0.08Sn0.92,4.150
Ti0.8V0.2,4.150
Sr3Rh4Sn13,4.150
Bi3In5,4.140
Lu0.5Th0.5Os3B2,4.140
Ta0.125Zr0.875,4.140
Bi0.7Sb0.3,4.140
U0.5Th0.5Os3B2,4.140
Y1Pd2Pb1,4.130
Cu0.08Ti1Se2,4.130
Be22W1,4.120
Pd2Y0.95Tm0.05Sn1,4.120
Pd2Y0.9Tm0.1Sn1,4.120
Re0.052Zr0.948,4.120
Bi1Ru1,4.120
Mg0.85Zn0.15C1Ni3,4.120
Ba0.91Ce0.09Fe2As2,4.120
Ce0.3Th0.7Ru2,4.120
Pd0.03Ta1S2,4.120
Bi1Te1Cl1,4.120
H0.9Pd1,4.110
Nb0.4V0.6,4.110
Nb0.55V0.45,4.110
Bi4S3O4,4.110
Pr0.9Ce0.1Pt4Ge12,4.110
Zr1P0.6Se1.4,4.110
La1.78Sr0.22Cu0.95Ni0.05O4,4.100
Nd0.95Pr0.05Ba2Cu3O6.6,4.100
La1Fe4P12,4.100
Ba2Sr6Si46,4.100
La1Fe1P1O1,4.100
Ta1S1.6Se0.4,4.100
C1Mo2,4.100
Lu5Ir4Si9.95Ge0.05,4.100
In1Sb1,4.100
As1Sn1,4.100
C1Ga1Mo2,4.100
C1.45Th1,4.100
Cr0.38Re0.62,4.100
In0.25Sb0.75,4.100
Ir2Zr1,4.100
La1Ru2,4.100
Mo1Na0.3S2,4.100
Pb1Tl2,4.100
Pt2Y1,4.100
Bi1In5,4.100
Be1W1,4.100
Dy1Ni1.995Co0.01B2C1,4.100
Bi3Ni1,4.100
Tl1V6S8,4.100
Be13W1,4.100
La1Pb3,4.100
Zr0.8Mo0.2,4.100
Ti0.8V0.2,4.100
Gd0.06In1La2.94,4.100
Bi0.06Sn0.94,4.100
La1Ru2P2,4.100
Cu0.02Fe0.98Se0.85,4.100
Y1Rh2Sn1,4.100
Ba1Fe1.958Pd0.042As2,4.100
Ba1Fe1.952Ni0.048As2,4.100
Li1Fe1P1,4.100
C1,4.100
In0.261Sb0.739,4.100
La0.9Y0.1Co2B2,4.100
Au0.65Pt0.35Te2,4.100
Bi3S3O2,4.100
Ce1Ni0.86Bi2,4.100
Ce1Ni0.8Bi2,4.100
Nd1Ni0.89Bi2,4.100
Y1Ni0.82Bi2,4.100
Ge0.989Rh1,4.100
Bi1La1,4.100
La1Bi1S1Se1F0.5O0.5,4.100
Na0.044Pd1Bi2,4.100
La1Pb3,4.090
Lu0.04Zr0.96B12,4.090
Hf0.8Lu0.2P1.45S0.55,4.090
Ce1Pt0.1Ru1.9,4.080
Cr0.02V0.98,4.080
Nb1Rh1P1,4.080
Mo0.15Ti0.85,4.080
Rh16Ir1S15,4.080
Bi3Ni0.95Fe0.05,4.080
Bi0.025In0.975,4.070
La1Pb3,4.070
Pd1.1Te1,4.070
La1Ru2,4.070
H0.74Nb0.8Pd0.2,4.070
Ce0.3Nd0.7F0.5Bi1S2O0.5,4.070
Ce0.3Nd0.7Bi1S2F0.5O0.5,4.070
Bi3Ni1,4.070
Pd2Y0.9Ho0.1Sn1,4.060
Bi3Ni1,4.060
Si0.025V0.975,4.060
Ba2Bi2.25Sb0.75,4.060
Bi3Ni0.9Fe0.1,4.060
C1W2,4.050
Ge1Nb3,4.050
Ca1Al0.8Si1.2,4.050
Ca1Ga1Si1,4.050
Al0.02V0.98,4.050
Na0.3Co0.995Mn0.005H2.6O3.3,4.050
Bi3Ni1,4.050
La0.5Sm0.5Bi1S2F0.5O0.5,4.050
La1Ni0.72Bi2,4.050
Nb3Rh2,4.040
Pd2Y0.7Yb0.3Sn1,4.030
Nb0.2V0.8,4.030
Fe1U6,4.030
La0.4Th0.6Ir3,4.030
La2.923Ce0.077In1,4.020
C2Y1,4.020
Ba1Ti2Sb0.8Bi1.2O1,4.020
Ir0.68Rh0.27Te2,4.020
Pb0.812Sn0.348Ti2Se5.16,4.020
Bi3.85Mn0.15S3O4,4.020
Bi4S3O4,4.020
Pb1Ta1Se2,4.020
Ru2Th1,4.010
Sn0.504Pb0.336In0.16Te1,4.010
La1.94Ba0.04Cu1O4,4.000
Bi2Ca2.5Gd0.5Cu2O8.33,4.000
La1.875Ba0.125Cu1O4,4.000
Y0.5Pr0.5Ba2Cu3O6.71,4.000
Y0.5Pr0.5Ba2Cu3O6.76,4.000
Y0.5Pr0.5Ba2Cu3O6.85,4.000
Gd1Ba1Sr1Cu3O6.77,4.000
Ba0.47K0.53Bi0.972Pr0.028O3,4.000
Sr4Ca10Cu24O41,4.000
Na0.29Co1H2.6O3.3,4.000
Na0.6Sn1Ta2S5,4.000
Nb2Sn1C1,4.000
Ca0.6Mo1S2,4.000
Lu4Rh6Sn19,4.000
Na0.65H5Sn1.16S5.16Ta2O2.5,4.000
La1Fe4P12,4.000
Na0.05Ta1S2,4.000
Au0.24La0.76,4.000
B5Nb1.9Ti0.1,4.000
B1Ta1,4.000
Bi0.4Pd0.6,4.000
Co0.05Rh0.04Ti0.91,4.000
Co0.02Sn0.98Ta3,4.000
Hg2Mg1,4.000
Ir0.05Rh0.04Ti0.91,4.000
O3Sr0.08W1,4.000
P1Sn1,4.000
Rh0.1Ti0.9,4.000
Rh0.12Ti0.88,4.000
Rh0.88Ti0.12,4.000
Ru0.45V0.55,4.000
N0.34Re1,4.000
Ca1Ir2,4.000
Bi0.34In0.66,4.000
In1Nb3,4.000
Nb3Si1Sn1V3,4.000
Na0.3Ba6.2Si46,4.000
Pb1Mo6Se8,4.000
Nb3S4,4.000
Tb1Re1B1C1,4.000
Gd1Re1B1C1,4.000
Zr1Ru1P1,4.000
Dy1Th3.4Ru0.6B4,4.000
Lu1Rh1.2Sn4,4.000
Lu4.975Sc0.025Ir4Si10,4.000
Ba1Ga0.78Si1.22,4.000
Er0.75Tb0.25Ni2B2C1,4.000
P1,4.000
Ba8Si34Ge12,4.000
Cu1Co2S4,4.000
Y0.65La0.35B6,4.000
Al13Os3.2Ru0.8,4.000
Cs0.1Li0.02W1O2.88F0.12,4.000
Mo0.163Ti0.837,4.000
B0.031C0.969,4.000
Mo0.050Zr0.950,4.000
In3.3Mo15Se19,4.000
Sr1Ti1O3,4.000
Se1Y1,4.000
Te3Zr1,4.000
Co1La3,4.000
Ga4Mn0.01Mo0.99,4.000
Mg0.8Zn0.2C1.05Ni3,4.000
Pr1Fe0.8Co0.2As1O1,4.000
Pr1Fe0.7Co0.3As1O1,4.000
La1Ni1As1F0.1O0.9,4.000
Fe0.98Cu0.02Se0.88,4.000
C1,4.000
Ce1Fe0.85Co0.15As1F0.1O0.9,4.000
Cs0.25W1O3,4.000
La1Co1.4Fe0.6B2,4.000
La1Ru2P2,4.000
La1.73Sr0.27Cu1O4,4.000
Ce1Fe1As0.7P0.3O1,4.000
Ba0.85K0.15Fe2As2,4.000
Ce1Bi1S2F0.7O0.35,4.000
Pb0.4Sn0.4In0.2Te1,4.000
Ba8Si39Al7,4.000
Bi12S11O18,4.000
La1Ni0.65Bi2,4.000
Mg4Ni6B2,4.000
Ba1Ge3,4.000
La3Co2Ru2Sn13,4.000
Ca3Rh8B2,4.000
Sn1As0.97Se0.03,4.000
Ag1Sn0.7Bi0.3Se2,4.000
Lu5Rh6Sn18,4.000
Te5Zr1,4.000
Ca0.05Mo1S2,4.000
Ca0.06Mo1S2,4.000
Ta1B1,4.000
Li1.3K1Sr2Nb3O10,4.000
Y1Ba2Cu3O6.45,39.900
La1.85Sr0.15Cu1Fe1O4,39.900
Sr0.9La0.1Cu1O2,39.900
Y1Ba2Cu2.97Zn0.03O6.67,39.800
B2Mg1,39.800
Tl1Ba1.1La0.9Cu1O5,39.600
Y1Ba2Cu3.94Zn0.06O8,39.600
Gd0.7Pr0.3Ba2Cu3O7,39.600
B2Mg1,39.600
Eu1.3Ba1.7Cu3O7.15,39.500
B2Mg1,39.500
B2Mg1,39.400
B2Mg1,39.360
La1.85Sr0.15Cu1O4,39.300
Y0.7Pr0.3Ba2Cu3O6.95,39.300
La1.84Sr0.16Cu1O4,39.300
B2Mg1,39.300
La0.5Y0.5Fe1As1O0.6,39.300
Sm1Fe0.95Ru0.05As1F0.15O0.85,39.300
Y1Ba2Cu2.85Zn0.15O6.95,39.200
La1.85Sr0.15Cu1O4,39.200
Gd1Ba1.75Pr0.25Cu3O7.06,39.200
B2Mg1,39.200
Y0.8Pr0.2Sr2Cu2.85Re0.15O7,39.100
B2Mg1,39.100
La1.85Sr0.15Cu1O4,39.000
La2.4Ba3.6Cu6O14.01,39.000
Y1Ba2Cu2.85Zn0.15O6.97,39.000
La1.8Sr0.2Cu1O4,39.000
Sr0.85Pr0.15Cu1O2,39.000
La1.97Sr0.03Cu1O4.06,39.000
La1.85Sr0.15Cu1O4.05,39.000
Y0.4Pr0.6Ba2Cu4O8,39.000
Ru1Sr1.6Ba0.4Gd1Cu2O8,39.000
La1.8Gd0.2Ba2Ca0.4Cu4.4O10.344,39.000
Dy1Ba2Cu2.7Ga0.3O6.77,39.000
La1.84Sr0.16Cu1O4,39.000
Ru0.9Sn0.1Sr2Gd1Cu2O8,39.000
Ru0.7Sn0.3Sr2Gd1Cu2O8,39.000
Pb0.5Cd0.5Sr1.8Eu1.6Ce0.6Cu2O9,39.000
B2Mg1,39.000
Ca1.8Cu1Cl2O2,39.000
Ru1Sr2Gd1Cu2O8,39.000
Mg0.7Be0.3B2,39.000
Mg0.98Sc0.02B2,39.000
La1.85Sr0.15Cu0.996Zn0.004O4,39.000
Mg1B2,39.000
Sm1Fe1As1F0.05O0.95,39.000
Fe2As2Ca5Mg0.8Ti3.2O9.8,39.000
Ba0.63K0.37Fe2As2,39.000
Ba0.64K0.34Fe2As2,39.000
Ca0.82La0.18Fe1As1.99P0.01,39.000
Ba0.8Fe2Se2,39.000
Ba0.6K0.4Fe2As2,39.000
La1.85Sr0.15Cu1O4,38.900
B2Mg1,38.900
Sm1Fe1As1F0.1O0.9,38.900
Ba0.66K0.34Fe2As2,38.900
B2Mg1,38.810
Eu0.7Pr0.3Ba2Cu3O6.95,38.800
La1.25Ca0.1Ba1.65Cu3O7.06,38.800
Bi1.8Pb0.2Sr2Ca1Cu1.88Co0.12O8,38.800
Tl1Ba1.3La0.7Cu1O5,38.800
B2Mg1,38.800
La0.6Y0.4Fe1As1O0.6,38.800
B2Mg1,38.730
Y1Ba2Cu2.97Zn0.03O6.59,38.700
Yb0.5Pr0.5Ba2Cu3O6.67,38.700
Y0.9Pr0.1Ba2Cu3O6.5,38.700
Pb0.5Cu1Sr0.8La1.2O5.01,38.700
La1.83Sr0.17Cu1O4,38.700
B2Mg1,38.700
Mg0.99Co0.01B2,38.700
La1.25Ca0.05Ba1.7Cu3O7.03,38.600
Sr0.95Y0.05Cu1O2,38.600
Sr0.8Y0.2Cu1O2,38.600
Sr0.75Y0.25Cu1O2,38.600
Y1Ba2Cu3.84Fe0.16O8,38.600
B2Mg1,38.600
Mg0.99Ti0.01B2,38.600
Mg0.9Cu0.1B2,38.600
Mg0.8Cu0.2B2,38.600
Li0.8Fe1.2Se0.84S0.16H1O1,38.600
Ba0.61K0.39Fe2As2,38.600
Tl0.7La1Sr1Cu1O5,38.500
Pb0.5Cu1Sr0.9La1.1O5.02,38.500
B2Mg1,38.500
Mg0.95Ti0.05B2,38.500
Mg0.95Zn0.025Al0.025B2,38.500
Mg0.9Zn0.05Al0.05B2,38.500
Mg1B1.991C0.009,38.500
Ba0.68K0.32Fe2As2,38.500
Sm1Ba2Cu3O6.75,38.400
Tl1Ba1.1La0.9Cu1O5,38.400
Y1Ba2Cu2.82Zn0.18O7,38.400
La1.85Sr0.15Cu1O4,38.400
B2Mg1,38.400
Mg0.9Zn0.1B2,38.400
Mg0.8Zn0.2B2,38.400
Mg1B1.98C0.02,38.400
Mg1B1.96C0.04,38.400
B2Mg0.98,38.400
Y1Ba1.5La0.5Cu3O7.19,38.300
Sm0.8Pr0.2Ba2Cu3O6.95,38.300
B2Mg1,38.300
Mg0.9Ti0.1B2,38.300
Mg0.95Zn0.05B2,38.300
Mg1B1.92C0.08,38.300
La1.86Sr0.14Cu0.99Li0.01O4,38.250
Mg0.95Li0.05B2,38.250
Ru0.8Sn0.2Sr2Gd1Cu2O8,38.200
B2Mg1,38.200
B2Mg0.9,38.200
Mg0.95Li0.025Al0.025B2,38.200
Ce1Fe1As1F0.1O0.9,38.200
Mg0.99Fe0.01B2,38.200
B2Mg1,38.140
Mg0.996Cu0.004B2,38.110
La1.85Sr0.15Cu1O4,38.100
B2Mg1,38.100
Ba0.6K0.4Fe2As2,38.100
Mg0.989Cu0.011B2,38.050
Y1Ba1.5La0.5Cu3O7.08,38.000
Tl2Ba2Cu1O5.957,38.000
Nd1.4Ba1.6Cu3O7.09,38.000
La1.85Sr0.15Cu1O4,38.000
La1.8Sr0.2Ca1Cu2O6,38.000
Sr0.95Nd0.05Cu1O2,38.000
La1.84Sr0.16Cu1O4,38.000
Sm1.2Ba1.8Cu3O7.09,38.000
La1.3Ba1.2Sr0.5Cu3O6.955,38.000
Y0.6Pr0.4Ba2Cu3O6.65,38.000
Sr1.5Ba0.5Y1Cu2.8Ga0.2O7,38.000
Y0.9Ce0.1Ba2Cu4O8,38.000
Eu1.5Ce0.5Ru1Sr2Cu2O10,38.000
Ca0.4La1.25Ba1.35Cu3O6.99,38.000
Ca0.1La1.25Ba1.65Cu3O7.06,38.000
Nd1Ba2Cu2.9Ga0.1O6.61,38.000
La2Cu1O4.066,38.000
Tl1Ba1.4La0.6Cu1O5,38.000
Tl1Sr2Ca0.2Pr0.8Cu2O7,38.000
Y1Ba2Cu2.961Zn0.039O6.7,38.000
Sr0.9La0.1Cu0.97Zn0.03O2,38.000
Ru1Sr2Gd1Cu2O8,38.000
Ca2Cu1Cl2.4O2,38.000
Ca2Cu1Cl2.5O2,38.000
Ga1Sr2Y0.6Ca0.4Cu2O7,38.000
B2Mg1,38.000
Mg0.99Al0.01B2,38.000
Ru0.98Ir0.02Sr2Gd1Cu2O8,38.000
Mg0.97Na0.03B2,38.000
Mg0.93Na0.07B2,38.000
Mg0.85Na0.15B2,38.000
Mg0.8Na0.2B2,38.000
B2Mg0.8,38.000
Mg1B1.95C0.05,38.000
Sr2Ca3Cu4F2O8.6,38.000
Mg0.92Li0.08B2,38.000
Ba0.6K0.4Fe2As2,38.000
Sr0.6K0.4Fe2As2,38.000
Sr1Fe2As2,38.000
La0.3Y0.7Fe1As1F0.15O0.85,38.000
C0.9S0.1,38.000
La0.62Dy0.38Fe1As1F0.175O0.825,38.000
Nd1Fe0.99Mn0.01As1F0.11O0.89,38.000
Ca10Fe8.2Pt4.8As18,38.000
Ca10Pt4Fe10As18,38.000
Ce1Fe1As1F0.1O0.9,38.000
La1Fe1As1H0.3O0.7,38.000
Cs3C60,38.000
Sr0.8Fe2Se2,38.000
Ba0.65K0.35Fe2As2,38.000
Ba0.663K0.337Fe2As2,38.000
La1.85Sr0.15Cu1O4,37.940
La1.85Sr0.15Cu1O3.98,37.900
Y1Ba1.78La0.22Cu4O8,37.900
Fe0.5Ba1Sr1Dy1Cu2.5O7.447,37.900
Mg0.99Al0.01B2,37.900
Mg1B1.958C0.042,37.900