formula,Tc
Y1Ba2Cu3.92Zn0.08O8,20.35
La1Ba2Cu2.95Co0.05O6.94,20.34
Ru1Sr2Gd1Cu2O8,20.3
Y0.4Pr0.6Ba2Cu4O8,20.3
B2Mg1,20.3
Li1.84H1Fe1.14Se1O1,20.3
La2Cu1O4.07,20.3
Ce1Fe1As1F0.2O0.8,20.3
Ru0.97Ti0.03Sr2Gd1Cu2O8,20.3
B2Mg1,20.29
B2Mg1,20.26
Ce1Fe1As1O0.7,20.2
La0.5Y0.5Fe1As1F0.15O0.85,20.2
Y1Ba2Cu2.94Ni0.06O6.6,20.2
Lu0.5Pr0.5Ba2Cu3O6.75,20.2
Ca0.4Ba1.35La1.25Cu3O6.98,20.2
Sm1Fe1As1O0.8,20.2
Nd1Fe0.98Co0.02As1F0.11O0.89,20.2
Y1Ba2Cu3O6.48,20.2
Y1Ba2Cu2.7Ni0.3O6.97,20.2
La1.85Sr0.15Cu1O4,20.2
Gd1Ba2Cu2.73Fe0.27O6.98,20.2
Y1Ba2Cu3O6.45,20.19
Bi2Sr2Ca0.5Y0.5Cu2O8.33,20.1
Y0.6Pr0.4Ba2Cu3O6.97,20.1
La2Cu1F1O4,20.1
Y1Ba2Cu3O6.53,20.1
Tl1Ba2Ca0.5Nd0.5Cu2O6.86,20.1
Sr0.84Nd0.16Cu1O2,20.1
Pb0.8Sr1Ba1.2Y0.7Ca0.3Cu3O7.59,20.05
Y1Sr2Cu2.8Mo0.2O7,20
La1.99Sr0.01Cu1O4.13,20
La1.98Sr0.02Cu1O4.09,20
La1.96Sr0.04Cu1O4.05,20
La1.25Ba1.75Cu3O7.07,20
C0.47Sr2Ca0.35Y0.65Cu2.48O6.96,20
Bi2Sr8Cu4C3O21,20
Sr2Cu1F2O2,20
Hg1Ba2Cu1O4.36,20
Nd1.2Ba1.4Ca0.4Cu3O6.888,20
La0.7Pr0.3Ca1Ba1Cu3O7,20
Y0.4Pr0.6Ba2Cu4O8,20
Pb0.5Tl0.5Sr4Cu2C0.9N0.1O10,20
La1Ba1Cu2.88Co0.12O7,20
Y1Ba2Cu3O6.54,20
La1.82Ca1.16Y0.02Cu2O6,20
Sr0.86Nd0.14Cu1O2,20
Sr0.84Nd0.16Cu1O2.01,20
Hg0.75Mo0.25Ba2Cu1O4.51,20
Tl2Ba2Cu1O6.056,20
La1.9Sr0.1Cu1O4.018,20
La1.9Sr0.1Cu1O4.023,20
La1.85Sr0.15Cu1O4.022,20
La1.85Sr0.15Cu1O4.03,20
Tl1Sr2Ca1Cu2O6.825,20
La1.8Er0.2Ba2Ca0.4Cu4.4O10.371,20
Bi2Sr2Ca0.5Y0.5Cu2O8.33,20
Y1Ba2Cu2.97Zn0.03O6.63,20
Eu0.6Pr0.4Ba2Cu4O8,20
Tl1Ba1.3La0.7Cu1O5,20
Y0.6Pr0.4Ba2Cu3O7,20
Hg1Ba2Cu1O4.37,20
Fe0.5Ba1Sr1Tm1Cu2.5O7.432,20
La1Ba1.5Ca0.5Cu3O6.79,20
La1.4Ba1.5Ca0.1Cu3O6.943,20
La1.5Ba1.1Ca0.4Cu3O6.969,20
La1.86Sr0.14Cu1O4,20
La0.7Ca0.1Pr0.2Ba1.5Sr0.5Cu3O6.862,20
Tl0.5Pb0.5Sr2Eu1.8Ce0.2Cu2O9,20
Eu1.4Ce0.6Ru1Sr2Cu2O10,20
La2Cu0.985V0.015O4.021,20
La2Cu0.975V0.025O4.032,20
La2Cu0.965V0.035O4.045,20
La2Cu0.955V0.045O4.056,20
Ga1Sr2Tm0.7Ca0.3Cu2O7,20
B2Mg1,20
Cs3C60,20
Sr2Ca4Cu5F2O10.57,20
Sm1Fe1As1F0.15O0.85,20
Ce1Fe1As1F0.12O0.88,20
La1Fe1As1F0.6O0.4,20
Ba2Ca1Cu2F2.2O3.8,20
Sr2V1Fe1As1O2.9,20
Nd1Fe0.9Ru0.1As1F0.11O0.89,20
Ca0.8La0.2Fe2As2,20
Ca8Mg1.5Ti4.5Fe2As2O9.5,20
Ca0.902Pr0.098Fe2As2,20
Sm4Fe2As2Te0.72F1.2O2.8,20
Li0.8Fe1.2Se1H1O1,20
K1Fe2Se2,20
Ca0.5Fe2Se2,20
Eu1Fe2Se2,20
Fe1Se1,20
Li0.8Fe1.2H1Se1O1,20
Li0.88Fe1.12Se1H1O1,20
Zr1P1.4S0.6,20
Ir3Th1,20
La1.72Sr0.28Cu1O4,20
Ba1Pt4Ge12,20
Bi2Pd1,20
Ir1Ti3,20
Zr2Co0.7Ga0.3,20
Zr0.75Y0.25P1S1,20
Pr1Fe0.95Co0.05As1O1,20
Nd1Bi1S2F0.5O0.5,20
Sr3Ir4Sn13,20
Nb0.92Ta0.71,20
La1,20
Ge1,20
Hf1Ru1As1,20
Ba1Ge2,20
Bi2.95Y0.05S3O2,20
Pb1Mo6S2Se6,20
Ce0.84Y0.16Ru2,20
Cu0.005V0.995,20
Ru0.46V0.54,20
Zr0.9Mo0.1,20
H0.28Mo0.15Nb0.68Pd0.17,20
Nb0.31Re0.69,20
Cu0.445Sn0.555,20
Mo0.124Zr0.876,20
Mo0.07Zr0.93,20
Zr2Co0.75Ni0.25,20
Mg1C1Ni2.967Fe0.033,20
Ti0.573Nb0.161Si0.266,20
Li2B1Pd2.4Pt0.6,20
Ba1,20
Ge0.55Nb3.45,20
Nb0.04Zr0.96,20
Pd0.165Sb0.835,20
Re0.6W0.4,19.95
Re0.7W0.3,19.95
Ce1Ru2,19.9
Nb1.5Mo1.5Al1,19.9
Sc5Co4Si10,19.9
Tb0.25Er0.75Ni2B2C1,19.9
Er0.75Tb0.25Ni2B2C1,19.9
Nb0.69V0.31,19.9
Ta0.008V0.992,19.9
La1,19.9
Pd2Sn1Y1,19.9
Np1Pd5Al2,19.85
Sr1Ga1Si1,19.8
La2.9Ce0.1Ni2B2N2.7,19.8
Ba1Fe1.946Mo0.056As2,19.8
Li1Fe1P1,19.8
Pd0.184Sb0.816,19.8
Nd0.8Sm0.2Bi1S2F0.3O0.7,19.8
Nd0.8Sm0.2F0.3Bi1S2O0.7,19.8
Bi2S2F0.5O0.5,19.8
Ba1Pt4Ge12,19.8
Pd1Bi1.92Pb0.08,19.8
Hf1P1.55S0.45,19.8
Zr2Co0.75Cu0.25,19.8
Ce0.7Th0.3Ru2,19.8
Nb5Ir0.2Pt2.8O1,19.8
Ir0.283Nb0.717,19.8
Lu4.5Th0.5Ir4Si10,19.8
La0.7Th0.3,19.8
La1Ru1Cr0.21Si2,19.8
Zr0.6Y0.4P1S1,19.8
La1.8Nd0.2Cu0.99Zn0.01O4.063,19.8
Hf1V2H1,19.8
Bi3.875Ni0.125S3O4,19.7
La1,19.7
N1Ti1,19.7
Nb1.05Se2,19.7
Ta1Rh1P1,19.7
Th1Ir1.8Ru0.2,19.7
Pr0.95Sr0.05Fe1As1O1,19.7
Li1Fe1P1,19.7
Ca0.75Sr2.25Rh4Sn13,19.7
Ta1Os1Si1,19.7
Fe0.008La0.992,19.7
Cu0.67Nb2S2C1,19.7
Sn0.7Mo3Se4,19.7
Sn0.7Mo3Se4,19.6
Pd0.074Ti0.926,19.6
Zr1P1.25S0.75,19.6
Nd1Bi0.99Pb0.01S2F0.3O0.7,19.6
Ba1,19.6
Hf0.7Lu0.3P1.45S0.55,19.6
N1Ta1,19.6
Y0.75Gd0.25Ni2B2C1,19.6
Lu0.8Gd0.2Ru1B2,19.6
Bi2Pd1,19.6
Ca0.75Sr2.25Rh4Sn13,19.55
Lu1.94Sc0.06Fe3Si5,19.5
Nd1Bi0.9Pb0.1S2F0.3O0.7,19.5
Al0.005V0.995,19.5
Pd0.15Ti0.85,19.5
H0.46Mo0.1Nb0.72Pd0.18,19.5
Sr1Pt1.8Pd1.2P1,19.5
Na0.31Co1H2.6O3.3,19.5
Na0.346Co1H2.6O3.3,19.5
La2.85Pr0.15Se4,19.5
Bi2Pd1,19.5
Hf0.8Lu0.2P1.55S0.45,19.5
Hf0.6Y0.4P1.55S0.45,19.5
Na0.35Co1H2.6O3.3,19.5
Sr2Ca12Cu24O41,19.5
Na0.3Co1H2.6O3.3,19.5
Y3Dy2Os4Ge10,19.5
Ti0.609Nb0.131Si0.260,19.5
Ti0.558Nb0.160Si0.282,19.5
Nb0.480Mo0.066Si0.454,19.5
Ba1,19.5
As1Ga1,19.5
C13La1,19.5
C1Ta0.4Ti0.6,19.5
Cu1Rh2S4,19.5
Nb0.8Ru0.2,19.5
Hf1Re2,19.45
C1Hf0.5Nb0.5,19.45
C1Ta0.4Ti0.6,19.4
Hf1Re2,19.4
In1Sb1,19.4
Na0.2Ba6Si46,19.4
Lu1Ni1.85Co0.3B2C1,19.4
Ho1Ni1.99Co0.02B2C1,19.4
Dy1Ni2B2C1,19.4
Er0.8Tb0.2Ni2B2C1,19.4
B1Re3,19.4
Cu1Rh2S4,19.3
Cr0.01V0.99,19.3
Nb4.4Re1,19.3
Rh0.02Zr0.98,19.3
Rh0.05Zr0.95,19.3
Lu5Ir1.2Rh2.8Si10,19.3
Pd0.15Zr0.85,19.3
Ge1Nb3,19.3
La3Ru1Pd3Ge13,19.3
La0.9Ce0.1Ru4P12,19.3
Na0.3Co1H2.6O3.3,19.3
Th1Pt4Ge12,19.3
La1Fe1P1O1,19.3
Mg10.5Ir19B17.1,19.3
As1Ga1,19.3
Pb1.14Nb3Se7.14,19.3
Rb0.16W1O3,19.3
Sc2Fe3Si5,19.3
Pb0.35Sn0.35In0.3Te1,19.2
Cr2Re3B1,19.2
Rb2Cr3As3,19.2
La1Fe1As0.6P0.4O1,19.2
Th1Pt4Ge12,19.2
Hf1Te5,19.2
La1Ru2.814Ni0.186Si2,19.2
Nd1Bi1S2F0.5O0.5,19.2
Nd1F0.5Bi1S2O0.5,19.2
Bi3.875Co0.125S3O4,19.2
Ca1Al0.7Ga0.3Si1,19.2
Cr0.008V0.992,19.2
Nd1Bi1S2F0.5O0.5,19.1
Nd1F0.5Bi1S2O0.5,19.1
Nd1F0.7Bi1S2O0.7,19.1
Zr0.926Lu0.074B12,19.1
Ce0.8La0.2Ru2,19.1
La2.4S4Y0.6,19.1
Zr0.935Lu0.065B12,19.1
Bi3.875Mn0.125S3O4,19.1
K1Cr3As3,19.1
Nb0.14Ta0.86,19.09
Lu0.9Tb0.1Ru1B2,19.08
Ba0.87Nd0.13Fe2As2,19
Na0.28Co1H2.6O3.3,19
Bi2Cs1,19
Ir1.05Nb0.95,19
Mo2Zr1,19
Re24Zr5,19
Re3Ta1,19
Ir1.15Nb0.85,19
Sr1Ga1.2Si0.8,19
Cu1Rh2S4,19
Si0.005V0.995,19
C1,19
Sn0.6In0.4Te1,19
Nd1Bi1S2F0.7O0.3,19
Bi3.9Mn0.1S3O4,19
Hf0.7Lu0.3P1.55S0.45,19
B1Mo2,19
Ce1Ru1.99Co0.01,19
Cu0.01V0.99,19
Mo0.065Zr0.935,19
Hf0.6Y0.4P1.45S0.55,19
Sr1Ga0.9Si1.1,19
Th0.9La0.1Ru2,19
Pd0.18Ti0.82,19
Mg1C1Ni2.9Ru0.1,19
Pb3Y1,19
Ti0.564V0.376Ru0.06,19
Bi2Pd1,19
Li0.62Cs1Ca2Nb3O10,19
Ir3Th1,19
Ag1Sn1Se2,19
V0.843Ge0.099Sb0.059,19
Pd0.2Ti0.8,19
Ca3Rh4Sn13,19
La1.75Sr0.25Cu0.97Ni0.03O4,19
Eu1.758Gd0.092Ce0.15Cu1O4,19
Na0.35Co1H2.6O3.3,19
Na0.3Co1H2.6O3.3,19
Na0.25Co1H2.6O3.3,19
Na0.35Co1H1.4O2,19
Lu5Ir4Si9.9Ge0.1,19
Na0.33Ta1S2,19
Ti0.530Nb0.158Si0.313,19
Nb0.580Si0.383Ge0.037,19
Nb0.478Si0.316B0.205,19
La3Ir2Ge2,19
Dy0.9Tb0.1Ni2B2C1,18.96
B12Y1,18.95
Ba1,18.9
Fe0.08Nb0.05Ti0.87,18.9
Ge1Ir1,18.9
Os2Y1,18.9
Re0.75Ta0.25,18.9
Ti0.775V0.225,18.9
Nb1Se2,18.9
Mo0.5Re0.5,18.9
V2.808Re0.192Si1,18.9
B12Y1,18.9
Cu1Rh2S4,18.9
B1Re3,18.9
Y1Re1B1C1,18.9
Y2Br1.75Cl0.25C2,18.85
Cu1Rh2S4,18.83
Ge1Ir1,18.8
Ag1Sn1Se2,18.8
Rb0.2W1O3,18.8
Sr1Al1Si1,18.8
Pr1Fe0.95Co0.05As1O1,18.8
Mg12Ir19B16,18.8
Y1Pd2Sn1,18.8
Nd1Bi1S2F0.5O0.5,18.75
Bi4S3O4,18.7
Ir0.93Te2,18.7
Nd1F0.3Bi1S2O0.7,18.7
Ag1Sn1Se2,18.7
La0.8Y0.2Fe0.965Mn0.035As1F0.11O0.89,18.7
Sr2.5Sn1O1,18.7
Zr4Rh2O1,18.7
Ag0.12In0.88,18.7
Ce0.97Gd0.03Ru2,18.7
Th1Rh4B4,18.7
Lu1Os3B2,18.7
Mo0.229Ru0.327P0.444,18.7
Nb2S1C0.85,18.7
Ho1Rh2.6Ru1.4B4,18.6
Nb0.8W0.2,18.6
Ir0.95Te2,18.6
Ce0.1Nd0.9F0.5Bi1S2O0.5,18.6
Ce0.1Nd0.9Bi1S2F0.5O0.5,18.6
Ru0.4W0.6,18.6
La0.5Th0.5Sn3,18.6
Nb0.16Ta0.84,18.6
Pb0.4Tl0.6,18.6
Bi3.925Mn0.075S3O4,18.6
Cr0.1Nb0.9,18.6
Si0.01V0.99,18.6
H0.75Nb0.85Pd0.15,18.6
Ag1Sn1Se2,18.6
Nd0.4Sm0.6F0.3Bi1S2O0.7,18.6
Al0.18La0.82,18.6
Ce0.001La0.999,18.6
Bi0.05In0.95,18.6
Nb0.17Ta0.83,18.6
La0.99Nd0.01,18.6
Hf1Ru1As1,18.55
Fe0.098Ga0.198V0.704,18.54
Nd0.8Sm0.2Bi1S2F0.7O0.3,18.52
Re3Ta1,18.5
Sr3Rh4Sn13,18.5
La0.98Lu0.02,18.5
La0.984Lu0.016,18.5
Nb0.2Ta0.8,18.5
Dy1Ir2Rh2B4,18.5
Pd0.05Ti0.95,18.5
La0.933Gd0.067Sn3,18.5
Er1Ni1.92Fe0.08B2C1,18.5
Hf1P1.5S0.5,18.5
Si3Y1,18.5
Mo0.815Pt0.185,18.5
Lu1Os3B2,18.5
Th1Pt4Ge12,18.5
La0.8Ce0.2Ru3Si2,18.5
Ta0.9Zr0.1B1,18.5
Bi2Pd1,18.5
Nb0.464Ta0.079Rh0.457,18.5
Na0.75Co1H2.6O3.3,18.5
La3Te4,18.5
Li0.98Fe1.02As1,18.45
Pr0.915Ce0.085Pt4Ge12,18.41
Zr1P1.1Se0.9,18.4
Y0.5Pr0.5Ba2Cu3O6.61,18.4
La1.8Sr0.2Cu0.96Zn0.04O4,18.4
Na0.35Co1H2.6O3.3,18.4
Na0.26Co1H2.6O3.3,18.4
Ti0.678Nb0.075Si0.248,18.4
Au0.167Pd0.166Te0.667,18.4
B1Re2,18.4
C3Er1Th1,18.4
Ir1.15Nb0.85,18.4
Os2Sc1,18.4
Pb3Zr5,18.4
Re0.25W0.75,18.4
P0.95Zr1,18.4
Ir1.15Nb0.85,18.3
Nb2.49V0.51Au1,18.3
Nb3Rh0.7Au0.3,18.3
C1Ta0.2Zr0.8,18.3
Ce0.005La0.995,18.3
V0.524Ti0.446Ta0.030,18.3
Y0.65Tb0.35Ni2B2C1,18.3
Dy1Ni2B2C1,18.3
Ca1Al1.4Si0.6,18.3
Cu1.5Rh1.5S4,18.3
Zr0.176V0.630Nb0.194,18.3
Th1Er1C3,18.3
Mo1.7Ta0.3B1C1,18.3
Ba1Fe1.66Zn0.12Co0.22As2,18.3
Lu2Ir3Si4.25Ge0.75,18.3
Lu2Ir2.97Rh0.03Si5,18.3
Ba1Ti2Bi2O1,18.3
Ba1Ti2Bi2O1,18.28
Au0.111Pd0.204Te0.685,18.28
Ba1Ti2Bi2O1,18.27
Sr1Pt2As2,18.26
La3Co4Sn11.7In1.3,18.25
K1Mo1S2,18.25
Ba1Ti2Bi2O1,18.25
Nb0.95Ni0.05B2,18.24
Na0.75Co1Ir0.001H2.6O3.3,18.23
Pb1S1Se1,18.2
Nd0.8Sm0.2F0.3Bi1S2O0.7,18.2
Nb0.15Ta0.85,18.2
Al1Gd0.003La3,18.2
La1Ru2.94Fe0.06Si2,18.2
Nd0.6Sm0.4Bi1S2F0.7O0.3,18.2
La0.59Rh4P12,18.2
Mo0.2Nb0.8,18.2
Sn0.005V0.995,18.2
Cr0.013V0.987,18.2
Mo2Zr1,18.2
Mo0.8Pt0.2,18.2
La1Fe0.875Ir0.125As1O1,18.2
Th1Pt4Ge12,18.2
B2Nb0.8,18.19
Pd2Y1Sn1,18.18
V0.504Ti0.482Ta0.014,18.16
Ce0.84Y0.1Gd0.06Ru2,18.14
Th0.8Nd0.2Ru2,18.12
Nb0.1Ta0.9,18.11
Ta0.035V0.965,18.1
Pd2Y1Sn1,18.1
Dy0.9Tm0.1Ni2B2C1,18.1
Ag1Sn1Se2,18.1
La1Bi1S2F0.9O0.54,18.1
V2.4Mo0.6Si1,18.1
Nb0.08Ta0.92,18.1
N0.8V1,18.1
Ru0.47V0.53,18.1
Sc5Co4Si10,18.1
Mo0.81Pt0.19,18.1
Dy1Rh2Ir2B4,18.1
Pb0.928Sn0.232Ti2Se5.16,18.1
Hf0.7Y0.3P1.45S0.55,18.1
Re0.76V0.24,18.1
Sc2Fe3Si5,18.1
Co0.007V0.993,18.1
Lu1.94Dy0.06Fe3Si5,18.1
La1Fe1As1F0.2O0.8,18.1
Ba1Ti2Sb0.4Bi1.6O1,18.1
Bi1Te1Cl1,18.1
Hf0.7Y0.3P1.55S0.45,18.1
V0.488Ti0.509Ta0.003,18.1
Ho1Ni1.95Co0.03B2C1,18.1
Ca1Al0.6Ga0.4Si1,18.07
Ce0.86Tb0.14Ru2,18.07
In0.9Pb0.1,18.06
Nb0.037Ta0.963,18.06
La1.943Sr0.057Cu1O4,18.05
La1Bi1S2F0.5O0.5,18.05
La1Ru2.94Fe0.06Si2,18.05
V0.486Ti0.512Ta0.001,18.04
La1.87Ba0.13Cu0.99Ga0.01O4,18.01
Ba0.6K0.4Bi0.925Pr0.075O3,18.01
Ba0.47K0.53Bi0.979Pr0.021O3,18.01
Na0.75Co1H2.6O3.3,18
Na0.3Co1H2.8O3.4,18
Na0.22Co1H1.8O2.85,18
Mg0.9Zn0.1C1Ni3,18
Nb0.488Si0.323C0.189,18
Sc4Rh6Sn19,18
Au0.2B5Mo1.8,18
Ba1,18
Bi1Nb3,18
Nb0.9Re0.1,18
S1.1Zr1,18
Nb0.32Re0.68,18
C1Hf0.6Nb0.4,18
Ti0.516V0.484,18
Cu1.5Rh1.5S4,18
Lu4.95Sc0.05Ir4Si10,18
Ca1Al1.3Si0.7,18
La0.99Sm0.01,18
Rh0.01Zr0.99,18
Sc2Fe3Si5,18
As1Ga1,18
Nb0.9Mg0.1B2,18
Nb0.75Mg0.25B2,18
Lu2Fe3Si5,18
Th1Rh4B4,18
Ho5Os4Si15,18
Na0.33H2.86Co1O3.42,18
Mg0.9Zn0.1C0.98Ni3,18
Fe1Te0.8S0.2,18
Y2Al1Ge3,18
Ba0.75Na0.25Ti2Sb2O1,18
Au0.075Sb0.85Te0.075,18
Ce1Bi1S2F0.7O0.3,18
Bi3S3O2,18
Nd1Bi1S2F0.5O0.5,18
Nd1F0.5Bi0.84S2O0.5,18
Gd1Sm1Ni2,18
Ba7.7Eu0.3Al5Si41,18
Sn1As0.9Se0.1,18
Li0.25Sr2Cu1I2O2,18
Ce0.6Th0.4Ru2,18
Zr1V1.7Fe0.3,18
Tc0.65V0.35,18
Ir0.28W0.72,18
Al0.01V0.99,18
Er0.03La0.97,18
Ir0.85Rh0.1Te2,18
Zr0.926Lu0.074B12,18
Mo6Se7S1,18
Ta1,18
Pr0.8Sr0.2Fe0.7Co0.3As1O1,18
Ba2Bi3,18
Ce0.2Nd0.8Bi1S2F0.5O0.5,18
Ce0.2Nd0.8F0.5Bi1S2O0.5,18
La0.2Th0.8Ir3,18
Hf0.6Lu0.4P1.45S0.55,18
Nb0.016Ta0.984,18
Nb0.04Ta0.96,18
Ta0.1V0.9,18
Mo0.04Zr0.96,18
Sm1Fe1As1F0.1O0.9,18
Bi4S3O4,18
Bi2Pd1,18
Nb0.025Ta0.975,18
Sn1,18
La1Tl0.24Pb2.76,18
Zr0.190V0.680Nb0.130,18
Ta0.057V0.943,18
La1Bi1S2F0.7O0.54,18
Ba2Bi2.75Sb0.25,18
Ce1Bi1S2F0.6O0.4,18
Ta4Pd3Te16,18
Sn0.55In0.45Te1,18
La0.9Th0.1Ni1C2,18
Cu1S4V2,18
In0.97Pd0.03,18
Cu0.025V0.975,17.99
Cu1V2S4,17.98
Th0.9La0.3Ru2,17.98
Nb0.05Ta0.95,17.97
Mg10Ir19B16,17.97
B2Nb1,17.93
H0.37Mo0.1Nb0.72Pd0.18,17.91
Bi2.95La0.05S3O2,17.9
Al0.2La0.8,17.9
Nb2S1C0.82,17.9
Ta1,17.9
Bi2S2F0.1O0.9,17.9
Pr1Pt4Ge11.5Sb0.5,17.9
La2.925Ce0.075In1,17.9
Au1Pb2,17.9
Nb1Rh1P1,17.9
Ba1Pb0.45Hg0.3Bi0.25O3,17.9
Ce0.2Nd0.8F0.5Bi1S2O0.5,17.9
Hf0.5Y0.5P1.45S0.55,17.9
La1Ru2,17.9
N0.99Ti1,17.88
Ta1Rh1P1,17.86
Th1Ir1.4Os0.6,17.84
Th1Rh4B4,17.832
Er0.8Gd0.2Rh4B4,17.82
La1Ni0.84Bi2.04,17.81
Bi4S3O4,17.8
In1,17.8
La1.85Sr0.15Cu0.976Co0.024O4,17.8
La1.875Ba0.125Cu1O4,17.8
Sm0.7Pr0.3Ba2Cu3O6.85,17.8
Na0.22Co1H1.8O2.85,17.8
Mg10Ir19B16,17.8
C60Sr4,17.8
Nb0.579Si0.421,17.8
Cu1.3K0.2Co1.5S4,17.8
Ta1,17.8
Na0.1Ta1S2,17.8
Au1Pb3,17.8
B12Yb0.01Zr0.99,17.8
Bi0.26Tl0.74,17.8
Os0.74W0.26,17.8
Nb1Se0.25Te0.75,17.8
Tm1Ni1.92Co0.16B2C1,17.8
La2Rh3Si5,17.8
Y2Br1.5Cl0.5C2,17.8
Ca1Al1.25Si0.75,17.8
Cs0.1W1O2.9F0.1,17.8
As2Te3,17.8
Al1Sc1Au2,17.8
Co1La3,17.8
Ta1Re1Si1,17.8
Y0.6La0.4B6,17.8
Ca1Ga1Si1,17.8
Ba2Bi3,17.8
Nb2B1N1,17.8
Cs0.96Bi4Te6,17.8
Cs1Bi4.1Te5.9,17.8
Sn0.5In0.5Te1,17.8
Nd1F0.5Bi1S2O0.5,17.8
Sn1As0.87Se0.13,17.8
Sc5Rh6Sn18,17.8
Bi1.8Pb0.2Pd1,17.77
Pd1Bi1.85Pb0.15,17.77
Zr2Co0.7Cu0.3,17.75
Bi3.925Co0.075S3O4,17.75
Ti0.76V0.24,17.7
Na0.75Co1Ga0.001H2.6O3.3,17.7
Al0.046In0.151Sn0.803,17.7
Tm1Ir2Rh2B4,17.7
Er0.2Y0.8Pd2Sn1,17.7
Th1Co0.9Ni0.1C2,17.7
Pd2Y0.9Yb0.1Sn1,17.7
La0.951Lu0.049,17.7
Nd1Bi1S2F0.5O0.5,17.7
Bi3.925Co0.075S3O4,17.7
In0.9Pb0.1,17.7
Zr0.246V0.601Nb0.153,17.7
Pd1Te1,17.7
Li2Pd1.5Pt1.5B1,17.7
Zr1P1.6S0.4,17.7
Bi2Pd1,17.7
Nb0.589Ta0.101Ir0.310,17.65
Nb0.563Si0.437,17.64
N0.99Ti1,17.61
Lu0.418Dy0.582Ni2B2C1,17.6
Rh1Se2,17.6
La1Rh1Si1,17.6
Bi2Te3,17.6
Nd1Bi1S2F0.6O0.4,17.6
Na0.3Co1H2.6O3.3,17.6
Zr0.184V0.655Nb0.160,17.6
Th1Rh4B4,17.6
La2.82Pr0.18S4,17.6
Ta1,17.6
La0.984Ce0.016Sn3,17.6
Lu1.9Sc0.1Fe3Si5,17.6
Ir0.75Rh0.2Te2,17.6
Pb1.2Mo6Se8,17.6
La1Fe0.98Zn0.02As1O0.85,17.6
Er1Ni1.9Fe0.1B2C1,17.6
Lu0.6Tm0.4Ru1B2,17.6
Ce0.2Nd0.8Bi1S2F0.7O0.3,17.53
Bi3.99Ag0.01S3O4,17.5
Sn0.1Bi1.1Sb0.9Te2S1,17.5
Ta1,17.5
Nd1.85Ce0.15Cu0.994Co0.006O4,17.5
Y1Ba2Cu2.9Ni0.1O6.56,17.5
Y1Ba2Cu2.9Zn0.1O6.88,17.5
Eu1.831Y0.018Ce0.15Cu1O4,17.5
Y2Ba4Cu7O14.03,17.5
Na0.31Co1H2.6O3.3,17.5
Na0.3Co1H2.6O3.3,17.5
Al0.22La0.78,17.5
Rh1Zr3,17.5
Te1,17.5
B5Mo0.2Nb1.8,17.5
H0.87Pd1,17.45
Ir0.1Ti0.9,17.4
Nb0.5V1.5Zr1,17.4
Pt0.05Rh0.04Ti0.91,17.4
Ta0.15Zr0.85,17.4
Te1,17.4
V0.45Nb0.5Zr1,17.4
Hf5Re24,17.4
Ta0.05V0.095,17.4
Nb0.171Ti0.664Mo0.166,17.4
Lu0.4Dy0.6Ni2B2C1,17.4
Lu0.05Dy0.95Ni2B2C1,17.4
Nd1.72Ta3.28S2,17.4
Y0.15Dy0.85Ni2B2C1,17.4
Ba1Sn3,17.4
Th1Rh4B4,17.4
Er1Rh4B4,17.4
Pb1Mo6S5Se3,17.4
Ca1Ga1Si1,17.4
V0.746Sb0.179Al0.075,17.4
La2.955Gd0.045In1,17.4
La1Ru2,17.3
Nb0.15V0.85,17.3
Te1,17.3
Mo15Se19,17.3
Rh0.25Zr0.75,17.3
H0.64Nb0.85Pd0.15,17.3
Sr3Rh4Sn13,17.3
Sc1Fe3Si5,17.3
Dy1Rh1.6Ir2.4B4,17.3
Ba1Fe1.872Co0.042Cu0.086As2,17.3
La1Pt1Si1,17.3
Ca1Ga1Si1,17.3
Ca10Pt3.213Fe9.787As18,17.3
Ta4Pd3Te16,17.3
Sb2Te3,17.3
Sn1As0.95Se0.05,17.3
Sn1As0.93Se0.07,17.29
Sn1As0.95Se0.05,17.2
Sn1As0.93Se0.07,17.2
La1Ru2,17.2
Nb0.97Ni0.03B2,17.2
Pr1Bi1S2F0.5O0.5,17.2
Ce0.2Nd0.8F0.7Bi1S2O0.7,17.2
Co1La3,17.2
Te1,17.2
Si1Ta1,17.2
La0.3Nd0.7Pt2.1B2.4C1.2,17.2
Rh0.106Ti0.894,17.2
Ta0.15Zr0.85,17.2
La0.92Gd0.08Sn3,17.2
Mo2Zr1,17.2
Nb2Pd1S4.5Se0.5,17.2
Sn0.6In0.4Te1,17.2
Rh0.01Zr0.99,17.2
Sm1Fe0.5Ru0.5As1F0.15O0.85,17.2
Bi3.875Co0.125S3O4,17.2
Au1Tl2,17.2
Bi1Ni1,17.2
Bi2Pd1,17.15
Bi2Rb1,17.11
Bi1Ni1,17.11
Bi2Pb1,17.1
Au1Pb3,17.1
In0.92Sn0.08,17.1
Nb0.5V0.5,17.1
Ge1Mo3,17.1
La0.9Y0.1Co2B2,17.1
Nd1Bi1S2F0.7O0.3,17.1
Ba0.95Rb0.05Ti2Sb2O1,17.1
Ba0.95K0.05Ti2Sb2O1,17.1
Ba2Bi2.5Sb0.5,17.1
Ca1Si3,17.1
Bi3.875Co0.125S3O4,17.1
Mo0.16Ti0.84,17.1
Ga1Sb1,17.1
Sr1Ga0.8Si1.2,17.1
Rb0.18W1O3,17.1
Nd1Bi1S2F0.1O0.9,17.04
Ba0.9Na0.1Ti2Sb2O1,17
Pb0.4Sn0.4In0.2Te1,17
Au0.2La0.8,17
Nb0.547Si0.453,17
Mo0.2Nb0.8,17
Sn0.4Pb0.4In0.2Te1,17
La0.2Ce0.8Ru2,17
Bi3In5,17
La0.992Sm0.008,17
Ga0.198Mn0.141V0.661,17
Ce0.32Th0.68Ir3,17
Na0.28Co1H2.6O3.3,17
N0.62Pt0.38,17
Nb0.6Rh0.4,17
Nb0.62Pt0.38,17
Sn0.01V0.99,17
Ta1,17
Pb0.42Sn0.42In0.16Te1,17
La0.4Sm0.6Bi1S2F0.5O0.5,17
La1.85Sr0.15Cu0.95Ni0.05O4,17
La1.87Ba0.13Cu1O4,17
La1.65Ba0.35Cu1O4,17
La1.6Ba0.4Cu1O4,17
Y1Ba2Cu2.9Fe0.1O6.62,17
Na0.3Co1H2.6O3.3,17
Na0.35Co1H2.6O3.3,17
Mo1N1,17
La1Fe4P12,17
La0.2Th0.8Ni1C2,17
Ga1Sb1,17
Al1Nb2Ni1,17
Bi1Sn1,17
Ga0.71V0.29,17
H0.11S2Ta1,17
Hg1Sn1,17
In0.913Pb0.087,17
K0.5Mo1O3,17
Nb0.925Ru0.075,17
Ru0.452V0.548,17
Re2Sc1,17
Nb1.2Mo1.8Al1,17
Bi1Pd2,17
C1Nb0.1Zr0.9,17
Cd0.97Pd0.03,17
Hf0.76Nb0.25,17
Er1Ni1.96Co0.08B2C1,17
Sr1Ga0.74Si1.26,17
Sr1Al1Si1,17
Y0.77Gd0.23Ni2B2C1,17
Y0.75Gd0.25Ni2B2C1,17
Zr2Co0.6Ni0.4,17
Sn1.1Mo6Se7.5,17
Mo6Se5I3,17
La3Ru1,17
Ir0.42Nb0.58,17
Ge1P1,17
Pd0.04Ta1S2,17
Cu0.04Ta1S2,17
Ba1Ga1Si1,17
Sr3Rh4Sn13,16.98
Tl2Mo6Se6,16.97
K0.5Mo1O3,16.95
Ca1Ga1Si1,16.95
Bi4S2.97Se0.03O4,16.9
Ce1Ni0.8Bi2.03,16.9
Pr1Ni0.79Bi1.98,16.9
Nd1Ni0.72Bi2.14,16.9
Sm1Ni0.78Bi2.08,16.9
Gd1Ni0.72Bi1.91,16.9
Tb1Ni0.74Bi1.9,16.9
Dy1Ni0.74Bi1.78,16.9
Ce1Ni0.8Bi2,16.9
Fe1Sr2Nd1Cu2O7.54,16.9
La0.4Sm0.6Bi1S2F0.5O0.5,16.9
Nd1Bi1S2F0.5O0.5,16.9
Zr2Co0.6Ni0.4,16.9
Bi3.97Ag0.03S3O4,16.9
Bi4I4,16.89
Se1Sn1,16.86
Na0.75Co0.999Ga0.001H2.6O3.3,16.85
Cu0.555Sn0.445,16.84
Pb0.32Sn0.48In0.2Te1,16.84
Pb1.044Sn0.116Ti2Se5.16,16.83
Cr0.66Re0.34,16.8
Mo0.16Ti0.84,16.8
Cr0.152Ti0.848,16.8
La0.908Tm0.092Sn3,16.8
Bi0.1Sn0.9,16.8
Er0.76Gd0.24Rh4B4,16.8
Sn0.42Pb0.42In0.16Te1,16.8
Cu0.08Ti1Se2,16.8
Sr3Rh4Sn13,16.8
Hg1,16.8
Tc0.6V0.4,16.8
Nb0.6V0.4,16.8
Cu0.081Ti1Se2,16.8
Pb0.43Sn0.43In0.16Te1,16.8
Rb0.2W1O3,16.8
Cu0.06Ta1S2,16.8
Lu1.9Y0.1Fe3Si5,16.76
Sn0.48Pb0.32In0.2Te1,16.75
Hg1,16.7
Cu0.08Ti1Se2,16.7
Bi0.26Tl0.74,16.7
Ge0.045Nb0.955,16.7
Y2Br1.25Cl0.75C2,16.7
Mo0.059Zr0.941,16.7
Bi0.08Sn0.92,16.7
Ti0.8V0.2,16.7
Sr3Rh4Sn13,16.65
Sr3Rh4Sn13,16.6
Bi3In5,16.6
Lu0.5Th0.5Os3B2,16.6
Ta0.125Zr0.875,16.6
Bi0.7Sb0.3,16.6
U0.5Th0.5Os3B2,16.6
Y1Pd2Pb1,16.6
Cu0.08Ti1Se2,16.6
Be22W1,16.6
Pd2Y0.95Tm0.05Sn1,16.6
Pd2Y0.9Tm0.1Sn1,16.6
Re0.052Zr0.948,16.6
Bi1Ru1,16.6
Mg0.85Zn0.15C1Ni3,16.6
Ba0.91Ce0.09Fe2As2,16.6
Ce0.3Th0.7Ru2,16.6
Pd0.03Ta1S2,16.6
Bi1Te1Cl1,16.6
Hg0.333In0.667,16.6
H0.9Pd1,16.6
Nb0.4V0.6,16.6
Nb0.55V0.45,16.6
Bi4S3O4,16.5
Pr0.9Ce0.1Pt4Ge12,16.5
Zr1P0.6Se1.4,16.5
La1.78Sr0.22Cu0.95Ni0.05O4,16.5
Nd0.95Pr0.05Ba2Cu3O6.6,16.5
La1Fe4P12,16.5
Ba2Sr6Si46,16.5
La1Fe1P1O1,16.5
Ta1S1.6Se0.4,16.5
C1Mo2,16.5
Lu5Ir4Si9.95Ge0.05,16.5
In1Sb1,16.5
As1Sn1,16.5
C1Ga1Mo2,16.5
C1.45Th1,16.5
Cr0.38Re0.62,16.5
In0.25Sb0.75,16.5
Ir2Zr1,16.5
La1Ru2,16.5
Mo1Na0.3S2,16.5
Pb1Tl2,16.5
Pt2Y1,16.5
Bi1In5,16.5
Be1W1,16.5
Dy1Ni1.995Co0.01B2C1,16.5
Bi3Ni1,16.5
Tl1V6S8,16.5
Be13W1,16.48
La1Pb3,16.48
Zr0.8Mo0.2,16.45
Ti0.8V0.2,16.45
Gd0.06In1La2.94,16.41
Bi0.06Sn0.94,16.4
La1Fe1P1O1,16.4
La1Ru2P2,16.4
Cu0.02Fe0.98Se0.85,16.4
Y1Rh2Sn1,16.4
Ba1Fe1.958Pd0.042As2,16.4
Ba1Fe1.952Ni0.048As2,16.4
Li1Fe1P1,16.4
C1,16.4
In0.261Sb0.739,16.4
La0.9Y0.1Co2B2,16.4
Au0.65Pt0.35Te2,16.4
La1Fe4P12,16.4
Bi3S3O2,16.4
Ce1Ni0.86Bi2,16.4
Ce1Ni0.8Bi2,16.4
Nd1Ni0.89Bi2,16.4
Y1Ni0.82Bi2,16.4
Ge0.989Rh1,16.4
Bi1La1,16.4
La1Bi1S1Se1F0.5O0.5,16.4
Bi3Ni1,16.4
Na0.044Pd1Bi2,16.4
Ni0.04Ta1S2,16.4
La1Pb3,16.35
Lu0.04Zr0.96B12,16.35
Hf0.8Lu0.2P1.45S0.55,16.3
Ce1Pt0.1Ru1.9,16.3
Cr0.02V0.98,16.3
Nb1Rh1P1,16.3
Mo0.15Ti0.85,16.3
Rh16Ir1S15,16.3
Bi3Ni0.95Fe0.05,16.3
Bi0.025In0.975,16.3
La1Pb3,16.3
Pd1.1Te1,16.3
La1Ru2,16.3
H0.74Nb0.8Pd0.2,16.3
Ce0.3Nd0.7F0.5Bi1S2O0.5,16.3
Ce0.3Nd0.7Bi1S2F0.5O0.5,16.3
Bi3Ni1,16.3
Pd2Y0.9Ho0.1Sn1,16.3
Si0.025V0.975,16.3
Ba2Bi2.25Sb0.75,16.25
Bi3Ni0.9Fe0.1,16.25
C1W2,16.25
Ge1Nb3,16.2
Ca1Al0.8Si1.2,16.2
Ca1Ga1Si1,16.2
Al0.02V0.98,16.2
Na0.3Co0.995Mn0.005H2.6O3.3,16.2
Bi3Ni1,16.2
La0.5Sm0.5Bi1S2F0.5O0.5,16.2
La1Ni0.72Bi2,16.2
Nb3Rh2,16.2
Pd2Y0.7Yb0.3Sn1,16.2
Nb0.2V0.8,16.2
Fe1U6,16.2
La0.4Th0.6Ir3,16.2
La2.923Ce0.077In1,16.2
C2Y1,16.2
Ba1Ti2Sb0.8Bi1.2O1,16.18
Ir0.68Rh0.27Te2,16.12
Pb0.812Sn0.348Ti2Se5.16,16.1
Bi3.85Mn0.15S3O4,16.1
Bi4S3O4,16.1
Pb1Ta1Se2,16.1
Hg1,16.1
Ru2Th1,16.1
Sn0.504Pb0.336In0.16Te1,16.1
La1.94Ba0.04Cu1O4,16.1
Bi2Ca2.5Gd0.5Cu2O8.33,16.1
La1.875Ba0.125Cu1O4,16.1
Y0.5Pr0.5Ba2Cu3O6.71,16.1
Y0.5Pr0.5Ba2Cu3O6.76,16.1
Y0.5Pr0.5Ba2Cu3O6.85,16.1
Gd1Ba1Sr1Cu3O6.77,16.1
Ba0.47K0.53Bi0.972Pr0.028O3,16.1
Sr4Ca10Cu24O41,16.1
Na0.29Co1H2.6O3.3,16.1
Na0.6Sn1Ta2S5,16.1
Nb2Sn1C1,16.1
Ca0.6Mo1S2,16.1
Lu4Rh6Sn19,16.1
Na0.65H5Sn1.16S5.16Ta2O2.5,16.1
La1Fe4P12,16.1
Na0.05Ta1S2,16.09
Au0.24La0.76,16.08
B5Nb1.9Ti0.1,16.04
B1Ta1,16.01
Bi0.4Pd0.6,16
Co0.05Rh0.04Ti0.91,16
Co0.02Sn0.98Ta3,16
Hg2Mg1,16
Ir0.05Rh0.04Ti0.91,16
O3Sr0.08W1,16
P1Sn1,16
Rh0.1Ti0.9,16
Rh0.12Ti0.88,16
Rh0.88Ti0.12,16
Ru0.45V0.55,16
N0.34Re1,16
Ca1Ir2,16
Bi0.34In0.66,16
In1Nb3,16
Nb3Si1Sn1V3,16
La1Fe4P12,16
Na0.3Ba6.2Si46,16
Pb1Mo6Se8,16
Nb3S4,16
Tb1Re1B1C1,16
Gd1Re1B1C1,16
Zr1Ru1P1,16
Dy1Th3.4Ru0.6B4,16
Lu1Rh1.2Sn4,16
Lu4.975Sc0.025Ir4Si10,16
Ba1Ga0.78Si1.22,16
Er0.75Tb0.25Ni2B2C1,16
P1,16
Ba8Si34Ge12,16
Cu1Co2S4,16
Y0.65La0.35B6,16
Al13Os3.2Ru0.8,16
Cs0.1Li0.02W1O2.88F0.12,16
Mo0.163Ti0.837,16
B0.031C0.969,16
Mo0.050Zr0.950,16
In3.3Mo15Se19,16
Sr1Ti1O3,16
Se1Y1,16
Te3Zr1,16
Co1La3,16
Ga4Mn0.01Mo0.99,16
Mg0.8Zn0.2C1.05Ni3,16
La1.875Ba0.125Cu1O4,16
Pr1Fe0.8Co0.2As1O1,16
Pr1Fe0.7Co0.3As1O1,16