formula,Tc
La1Ni1As1F0.1O0.9,16
Fe0.98Cu0.02Se0.88,16
C1,16
Ce1Fe0.85Co0.15As1F0.1O0.9,16
Cs0.25W1O3,16
La1Co1.4Fe0.6B2,16
La1Ru2P2,16
La1.73Sr0.27Cu1O4,16
Ce1Fe1As0.7P0.3O1,16
Ba0.85K0.15Fe2As2,16
Ce1Bi1S2F0.7O0.35,16
Pb0.4Sn0.4In0.2Te1,16
Ba8Si39Al7,16
Bi12S11O18,16
La1Ni0.65Bi2,16
Mg4Ni6B2,16
Ba1Ge3,16
La3Co2Ru2Sn13,16
Ca3Rh8B2,16
Sn1As0.97Se0.03,16
Ag1Sn0.7Bi0.3Se2,16
Lu5Rh6Sn18,16
Te5Zr1,16
Ca0.05Mo1S2,15.96
Ca0.06Mo1S2,15.94
Ta1B1,15.92
Li1.3K1Sr2Nb3O10,15.92
B1Ta1,15.9
Y1Ba2Cu3O6.45,15.9
La1.85Sr0.15Cu1Fe1O4,15.9
Sr0.9La0.1Cu1O2,15.9
Y1Ba2Cu2.97Zn0.03O6.67,15.9
B2Mg1,15.9
Tl1Ba1.1La0.9Cu1O5,15.9
Y1Ba2Cu3.94Zn0.06O8,15.9
Gd0.7Pr0.3Ba2Cu3O7,15.9
Eu1.3Ba1.7Cu3O7.15,15.9
B2Mg1,15.89
B2Mg1,15.82
B2Mg1,15.8
La1.85Sr0.15Cu1O4,15.8
Y0.7Pr0.3Ba2Cu3O6.95,15.8
La1.84Sr0.16Cu1O4,15.8
La0.5Y0.5Fe1As1O0.6,15.8
Sm1Fe0.95Ru0.05As1F0.15O0.85,15.8
Y1Ba2Cu2.85Zn0.15O6.95,15.8
Gd1Ba1.75Pr0.25Cu3O7.06,15.8
Y0.8Pr0.2Sr2Cu2.85Re0.15O7,15.8
La2.4Ba3.6Cu6O14.01,15.8
Y1Ba2Cu2.85Zn0.15O6.97,15.76
La1.8Sr0.2Cu1O4,15.75
Sr0.85Pr0.15Cu1O2,15.75
La1.97Sr0.03Cu1O4.06,15.75
La1.85Sr0.15Cu1O4.05,15.75
Y0.4Pr0.6Ba2Cu4O8,15.7
La1.85Sr0.15Cu1O4,15.7
Ru1Sr1.6Ba0.4Gd1Cu2O8,15.7
La1.8Gd0.2Ba2Ca0.4Cu4.4O10.344,15.7
Dy1Ba2Cu2.7Ga0.3O6.77,15.7
La1.84Sr0.16Cu1O4,15.7
Ru0.9Sn0.1Sr2Gd1Cu2O8,15.7
Ru0.7Sn0.3Sr2Gd1Cu2O8,15.7
Pb0.5Cd0.5Sr1.8Eu1.6Ce0.6Cu2O9,15.7
B2Mg1,15.7
Ca1.8Cu1Cl2O2,15.7
Ru1Sr2Gd1Cu2O8,15.7
B2Mg1,15.65
B2Mg1,15.6
Mg0.7Be0.3B2,15.6
Mg0.98Sc0.02B2,15.6
La1.85Sr0.15Cu0.996Zn0.004O4,15.6
La1.85Sr0.15Cu1O4,15.6
Mg1B2,15.6
Sm1Fe1As1F0.05O0.95,15.6
Fe2As2Ca5Mg0.8Ti3.2O9.8,15.6
Ba0.63K0.37Fe2As2,15.6
Ba0.64K0.34Fe2As2,15.6
Ca0.82La0.18Fe1As1.99P0.01,15.6
Ba0.8Fe2Se2,15.6
Ba0.6K0.4Fe2As2,15.6
La1.85Sr0.15Cu1O4,15.56
B2Mg1,15.55
Sm1Fe1As1F0.1O0.9,15.55
Ba0.66K0.34Fe2As2,15.55
B2Mg1,15.5
Eu0.7Pr0.3Ba2Cu3O6.95,15.5
La1.25Ca0.1Ba1.65Cu3O7.06,15.5
Bi1.8Pb0.2Sr2Ca1Cu1.88Co0.12O8,15.5
Tl1Ba1.3La0.7Cu1O5,15.5
La0.6Y0.4Fe1As1O0.6,15.5
Y1Ba2Cu2.97Zn0.03O6.59,15.5
Yb0.5Pr0.5Ba2Cu3O6.67,15.5
Y0.9Pr0.1Ba2Cu3O6.5,15.5
Pb0.5Cu1Sr0.8La1.2O5.01,15.5
La1.83Sr0.17Cu1O4,15.5
Mg0.99Co0.01B2,15.5
La1.25Ca0.05Ba1.7Cu3O7.03,15.5
Sr0.95Y0.05Cu1O2,15.5
Sr0.8Y0.2Cu1O2,15.5
Sr0.75Y0.25Cu1O2,15.5
Y1Ba2Cu3.84Fe0.16O8,15.5
B2Mg1,15.48
B2Mg1,15.45
Mg0.99Ti0.01B2,15.45
B2Mg1,15.41
B2Mg1,15.4
Mg0.9Cu0.1B2,15.4
Mg0.8Cu0.2B2,15.4
Li0.8Fe1.2Se0.84S0.16H1O1,15.4
Ba0.61K0.39Fe2As2,15.4
Tl0.7La1Sr1Cu1O5,15.4
Pb0.5Cu1Sr0.9La1.1O5.02,15.4
Mg0.95Ti0.05B2,15.4
Mg0.95Zn0.025Al0.025B2,15.4
Mg0.9Zn0.05Al0.05B2,15.32
Mg1B1.991C0.009,15.32
B2Mg1,15.3
Ba0.68K0.32Fe2As2,15.3
Sm1Ba2Cu3O6.75,15.3
Tl1Ba1.1La0.9Cu1O5,15.3
Y1Ba2Cu2.82Zn0.18O7,15.3
La1.85Sr0.15Cu1O4,15.3
Mg0.9Zn0.1B2,15.3
Mg0.8Zn0.2B2,15.3
Mg1B1.98C0.02,15.23
Mg1B1.96C0.04,15.23
B2Mg0.98,15.2
Y1Ba1.5La0.5Cu3O7.19,15.2
Sm0.8Pr0.2Ba2Cu3O6.95,15.2
B2Mg1,15.2
Mg0.9Ti0.1B2,15.2
Mg0.95Zn0.05B2,15.2
Mg1B1.92C0.08,15.2
La1.86Sr0.14Cu0.99Li0.01O4,15.2
Mg0.95Li0.05B2,15.2
Ru0.8Sn0.2Sr2Gd1Cu2O8,15.2
B2Mg0.9,15.2
B2Mg1,15.14
Mg0.95Li0.025Al0.025B2,15.1
Ce1Fe1As1F0.1O0.9,15.1
Mg0.99Fe0.01B2,15.1
B2Mg1,15.1
Mg0.996Cu0.004B2,15.1
La1.85Sr0.15Cu1O4,15.1
Ba0.6K0.4Fe2As2,15.1
Mg0.989Cu0.011B2,15.1
Y1Ba1.5La0.5Cu3O7.08,15.1
Tl2Ba2Cu1O5.957,15.1
Nd1.4Ba1.6Cu3O7.09,15.1
La1.8Sr0.2Ca1Cu2O6,15.1
Sr0.95Nd0.05Cu1O2,15.05
La1.84Sr0.16Cu1O4,15
Sm1.2Ba1.8Cu3O7.09,15
La1.3Ba1.2Sr0.5Cu3O6.955,15
Y0.6Pr0.4Ba2Cu3O6.65,15
Sr1.5Ba0.5Y1Cu2.8Ga0.2O7,15
Y0.9Ce0.1Ba2Cu4O8,15
Eu1.5Ce0.5Ru1Sr2Cu2O10,15
Ca0.4La1.25Ba1.35Cu3O6.99,15
Ca0.1La1.25Ba1.65Cu3O7.06,15
Nd1Ba2Cu2.9Ga0.1O6.61,15
La2Cu1O4.066,15
Tl1Ba1.4La0.6Cu1O5,15
Tl1Sr2Ca0.2Pr0.8Cu2O7,15
La1.85Sr0.15Cu1O4,15
Y1Ba2Cu2.961Zn0.039O6.7,15
Sr0.9La0.1Cu0.97Zn0.03O2,15
Ru1Sr2Gd1Cu2O8,15
Ca2Cu1Cl2.4O2,15
Ca2Cu1Cl2.5O2,15
Ga1Sr2Y0.6Ca0.4Cu2O7,15
B2Mg1,15
Mg0.99Al0.01B2,15
Ru0.98Ir0.02Sr2Gd1Cu2O8,15
Mg0.97Na0.03B2,15
Mg0.93Na0.07B2,15
Mg0.85Na0.15B2,15
Mg0.8Na0.2B2,15
B2Mg0.8,15
Mg1B1.95C0.05,15
Sr2Ca3Cu4F2O8.6,15
Mg0.92Li0.08B2,15
Ba0.6K0.4Fe2As2,15
Sr0.6K0.4Fe2As2,15
Sr1Fe2As2,15
La0.3Y0.7Fe1As1F0.15O0.85,15
C0.9S0.1,15
La0.62Dy0.38Fe1As1F0.175O0.825,15
Nd1Fe0.99Mn0.01As1F0.11O0.89,15
Ca10Fe8.2Pt4.8As18,15
Ca10Pt4Fe10As18,15
Ce1Fe1As1F0.1O0.9,15
La1Fe1As1H0.3O0.7,15
Cs3C60,15
Sr0.8Fe2Se2,15
Ba0.65K0.35Fe2As2,15
Ba0.663K0.337Fe2As2,15
La1.85Sr0.15Cu1O3.98,15
Y1Ba1.78La0.22Cu4O8,15
Fe0.5Ba1Sr1Dy1Cu2.5O7.447,15
Mg1B1.958C0.042,15
Mg0.997Fe0.003B2,15
Pb0.6Cu1Sr1La1O5.06,15
Eu0.6Pr0.4Ba2Cu3O7,15
La2Cu1O4.095,14.91
Ru0.925Sn0.075Sr2Gd1Cu2O8,14.9
Mg0.93Li0.07B2,14.9
B2Mg1,14.9
Mg0.9Li0.1B2,14.9
Mg0.8Ti0.2B2,14.9
Mg0.982Cu0.018B2,14.9
Mg1B1.94C0.06,14.9
Mg0.9Al0.05Li0.05B2,14.9
Mg0.9Al0.1B2,14.9
Mg0.9Li0.05Al0.05B2,14.9
Ba0.6K0.4Fe2As2,14.9
Ca0.8La0.2Fe0.978Co0.022As2,14.9
Rb1Eu1Fe4As4,14.9
Ba0.5K0.5Fe2As2,14.9
Gd1Sr2Ru0.9Cu2.1O8,14.85
Mg0.95Cu0.05B2,14.8
Bi4Sr4Ca1Tm1Cu4O16.67,14.8
La2Cu1O4,14.8
Pb0.5Cu1Sr0.9La1.1O5.08,14.8
Mg0.997Fe0.003B2,14.8
Mg0.95Zr0.05B2,14.8
Sr0.5K0.5Fe2As2,14.8
Mg1.995Mn0.005B2,14.8
Tl1Sr2Ca0.5Sm0.5Cu2O6.75,14.8
Pb0.6Cu1Sr1La1O5.05,14.8
Pb0.6Cu1Sr0.9La1.1O5.06,14.8
La1.847Sr0.153Cu1O4,14.8
Mg0.4Ti0.6B2,14.8
B2Mg1,14.8
Mg1.99Mn0.01B2,14.8
Mg0.97Cu0.03B2,14.75
Y1Ba2Cu3O6.49,14.72
Y1Ba2Cu2.94Ni0.06O6.56,14.7
La2Cu1O4.32,14.7
Tl1Sr1.9Cr0.1Cu1O5,14.7
La1.828Sr0.172Cu1O4,14.7
Sr2Y1Ru0.9Cu0.1O6,14.7
La1.85Sr0.15Cu1O4,14.7
Mg0.98Al0.02B2,14.7
Mg0.9Al0.1B2,14.7
B2Mg1,14.7
Mg0.85Li0.15B2,14.7
Mg0.6Ti0.4B2,14.7
Mg1B1.958C0.042,14.68
La1.85Sr0.15Cu1O4,14.6
Ba0.7K0.3Fe2As2,14.6
Na0.65Fe1.93Se2,14.6
Ba0.66K0.34Fe2As2,14.6
Ca0.8La0.2Fe0.98Co0.02As2,14.6
Y1Ba2Cu2.9Fe0.1O6.75,14.6
Y1Ba2Cu2.95Fe0.05O6.64,14.6
La1.75Pr0.1Sr0.15Cu1O4,14.6
B2Mg1,14.6
Mg0.9Li0.1B2,14.6
Mg0.98Co0.02B2,14.6
Mg1.985Mn0.015B2,14.6
Nd1Fe0.9Ru0.1As1F0.11O0.89,14.6
K0.8Fe1.97Mn0.03Se2,14.6
Ba0.58K0.42Fe2As2,14.6
Mg1.9Cu0.1B12,14.55
B2Mg1,14.51
Mg0.97Al0.03B2,14.51
Mg0.9Zr0.1B2,14.5
Mg0.8Zr0.2B2,14.5
Mg1B1.9C0.1,14.5
B2Mg1,14.5
Nb0.6Ru0.4Sr2Eu1.5Ce0.5Cu2O10,14.5
Ba0.6K0.4Fe2As2,14.5
Ce1Fe1As1H0.4O0.6,14.5
La1.8Sr0.2Cu1O4,14.5
La1.83Sr0.17Cu1O4,14.5
Mg1B1.98C0.02,14.5
B2Mg0.7,14.5
Sm1Fe0.99Mn0.01As1F0.12O0.88,14.5
Ba0.5K0.5Fe1.9Ru0.1As2,14.5
La1.85Sr0.15Cu1O4,14.5
La1.84Sr0.16Cu1O4,14.5
Tl0.8La1Sr1Cu1.2O5,14.5
La2Cu1O4,14.5
Bi2Sr2Ca0.6Y0.4Cu2O8,14.5
Y2Ba4Cu7O14.13,14.5
Y1Sr2Cu2.75Re0.25O7,14.5
Y1Sr2Cu2.6Fe0.4O7,14.5
La1.75Sr0.25Cu1O4.07,14.5
La1.67Sr0.33Cu1O4,14.5
Nd2Cu1F0.3O3.7,14.5
La1.82Sr0.18Cu1O4,14.45
La2Tl2Sr2Cu3O11,14.45
La1.85Sr0.15Cu1O4,14.42
La1.85Sr0.15Cu1O4,14.4
La1.83Sr0.17Cu1O4,14.4
Tl1Sr2Ca1Cu2O6.75,14.4
Nd1Ba1.6La0.4O6.68,14.4
Nd1Ba1Ca1Cu3O7,14.4
La1.85Sr0.15Cu1O3.998,14.4
Y0.6Pr0.4Ba2Cu3O6.95,14.4
La1.84Sr0.16Cu1O4,14.4
Y0.8Pr0.2Ba2Cu3O6.6,14.4
Y1Ba2Cu2.94Zn0.06O6.75,14.4
La1.82Sr0.18Cu0.98Mn0.02O4,14.4
La1.79Sr0.21Cu0.96Mn0.04O4,14.4
La1.76Sr0.24Cu0.94Mn0.06O4,14.4
La1.73Sr0.27Cu0.92Mn0.08O4,14.4
La1.7Sr0.3Cu0.9Mn0.1O4,14.4
Hg1.4Tl0.6Ba2Y0.9Ca0.1Cu2O7.88,14.4
La1.82Sr0.18Cu1O4,14.4
La1.86Sr0.14Cu1O4,14.4
La1.758Pr0.092Sr0.15Cu1O4,14.4
Bi1.6Sr0.4Yb1Cu3O6.35,14.4
Ru1Sr2Gd1Cu2O8,14.4
Er1Ba2Cu2.73Zn0.18Fe0.09O6.94,14.4
Tl2Ba2Cu1O6,14.4
La1.81Sr0.19Cu0.98Mn0.02O4,14.38
La1.77Sr0.23Cu0.96Mn0.04O4,14.38
La1.73Sr0.27Cu0.94Mn0.06O4,14.35
La1.83Sr0.15Na0.02Cu1O4,14.3
La1.8Sr0.15Na0.05Cu1O4,14.3
La1.75Sr0.15Na0.1Cu1O4,14.3
La1.7Sr0.15Na0.15Cu1O4,14.3
La1.55Sr0.15Na0.3Cu1O4,14.3
Ru1Sr2Gd1Cu2O8,14.3
Tb1Sr2Cu2.7Mo0.3O7.15,14.3
La1.85Sr0.15Cu1O4,14.3
Mg0.95Al0.025Li0.025B2,14.3
Mg0.94Al0.06B2,14.3
B2Mg1,14.3
Mg1B1.8C0.2,14.3
Mg0.994Fe0.006B2,14.3
Sm1La0.82Sr0.18Cu1O4,14.3
Ba0.6K0.4Fe2As2,14.25
La1.85Sr0.15Cu1O4,14.25
La1.85Sr0.15Cu1O4,14.2
K0.4Sr0.6Fe2As2,14.2
Dy1Fe1As1O0.7,14.2
Ba0.68K0.32Fe2As2,14.2
B2Mg1,14.2
Mg1B1.98C0.02,14.2
Mg1B1.968C0.032,14.2
Mg1B1.938C0.062,14.2
Ba0.677K0.323Fe2As2,14.2
Li0.8Fe1.2H1Se1O1,14.2
Rb1Eu1Fe4As4,14.2
La1.836Sr0.164Cu1O4,14.2
Ru0.975Sn0.025Sr2Gd1Cu2O8,14.2
B2Mg0.6,14.2
Sr0.875La0.125Cu1O2,14.2
La1.86Sr0.14Cu1O4,14.2
Mg1.98Mn0.02B2,14.2
Ba0.5K0.5Fe2As2,14.2
Ba0.7Rb0.3Fe2As2,14.2
Ba0.59K0.41Fe2As2,14.2
Mg1B1.8C0.2,14.2
Sr1Cs1Fe4As4,14.19
Ba0.6K0.4Fe2As2,14.125
Rb1Eu1Fe4As4,14.1
Eu1Rb1Fe4As4,14.1
La1.85Sr0.15Cu1O4,14.1
Y1Ba2Cu3.92Zn0.08O8,14.1
Pb0.6Cu1Sr1La1O5.09,14.1
Pb0.5Cu1Sr1La1O5.03,14.1
Pb0.5Cu1Sr1La1O5.05,14.1
Ba1.2Sr0.8Yb1Cu3O6.61,14.1
Ru1Sr2Gd1Cu2O8,14.1
Mg0.99Cr0.01B2,14.1
Ba0.72K0.28Fe2As2,14.1
Sr2Mg0.3Ti0.7Fe1As1O3,14.1
Sr0.9Y0.1Cu1O2,14.1
Sr0.85Y0.15Cu1O2,14.1
La1.868Sr0.132Cu1O4,14.1
Y1Ba1.5La0.5Cu3O7.22,14.1
B2Mg1,14.1
Mg0.95Al0.05B2,14.05
B2Mg1,14.048
Cs0.4Sr0.6Fe2As2,14
Y1Ba2Cu3O6.4,14
Eu0.75Ca0.25Rb1Fe4As4,14
Y0.2Ca0.4Pr0.4Ba2Cu3O7,14
La1.85Sr0.15Cu1O4,14
La1.85Sr0.15Cu0.98Li0.02O4,14
Nd1Ba1.65La0.35O6.69,14
Mg1.8Cu0.2B12,14
Mg0.95Al0.05B2,14
B2Mg1,14
Ba0.6K0.4Fe2As2,14
Ba0.7K0.3Fe2As2,14
La1.75Sr0.25Cu0.94Ni0.06O4,14
Ba0.5K0.5Fe1.8Ru0.2As2,14
Fe1Sr2Gd1Cu2O7.58,14
Ca0.8La0.2Fe0.967Co0.033As2,14
Rb1Eu1Fe4As4,14
Eu1Rb1Fe4As4,14
Eu0.5Ca0.5Rb1Fe4As4,14
La1.83Sr0.17Cu1O4,14
Y1Ba2Cu3.92Zn0.08O8,14
Mg0.9Al0.05Li0.05B2,14
Mg1B1.7C0.3,14
La1.75Sr0.25Cu0.94Co0.06O4,14
Sr2V1Fe1As1O3,14
Sm1Fe1As1F0.06O0.94,14
Sm1Fe1As0.9P0.1F0.12O0.88,14
Ca0.79La0.21Fe1As2,14
Sm0.9Pr0.1Ba2Cu3O6.75,14
Ru0.99Ti0.01Sr2Gd1Cu2O8,14
Ru0.95Rh0.05Sr2Gd1Cu2O8,14
Mg1B1.85C0.15,14
Ca1Rb1Fe4As4,14
Mg0.99Mn0.01B2,14
Mg1B1.9C0.1,14
Mg1B1.924C0.076,14
Mg0.97Co0.03B2,14
La0.7Y0.3Fe1As1F0.15O0.85,14
Y1Ba2Cu3.92Co0.08O8,14
Ca0.78Ce0.22Fe2As2,14
La1Fe1As1H0.46O0.54,14
La1.85Sr0.15Cu0.995Ni0.005O4,14
Mg1B1.96C0.04,14
Mg0.9Al0.1B2,14
Pr0.1La1.7Sr0.2Cu1O4,14
Y1Ba2.01Cu2.7Co0.3O6.8,14
Y1.01Ba2.01Cu2.697Fe0.303O1,14
Y1Ba2Cu2.7Co0.3O7.11,14
La1.8Sr0.2Cu1O4,14
La1.825Sr0.175Cu1O4,14
Y1Ba2Cu2.7Fe0.3O7.15,14
Y2Ba4Cu7O14.04,14
Tm0.5Pr0.5Ba2Cu3O6.64,14
Bi1.95Sr1.65La0.4Cu1O4,14
Bi1.6Pb0.4Sr1.6La0.4Cu1O4,14
Hg1Ba2Cu1O4.09,14
Y0.5Pr0.5Ba1Sr1Cu3O6.9,14
Pb0.5Cd0.5Sr1.6Ba0.4Ca0.5Y0.5Cu2O7,14
Nd1.3Ba1.5Ca0.2Cu3O6.952,14
Nd1.3Ba1.5Sr0.2Cu3O6.917,14
La2Cu1O4.068,14
La1.85Sr0.15Cu1O4,13.98
La1.837Sr0.162Cu1O4,13.98
La1.85Sr0.15Cu1O4,13.9
La1.86Sr0.14Cu1O4,13.9
Ru1Sr2Gd1Cu2O8,13.9
Er1Ba2Cu2.76Zn0.24O6.89,13.9
La1.85Sr0.15Cu1O4.01,13.9
Hg0.7Mo0.3Sr2Cu1O4,13.9
Hg1Ba2Cu1O4.032,13.9
Ca2Cu1Cl2.3O2,13.9
La3Ca0.3Cd0.7Ba3Cu7O16.303,13.9
Mg1B1.924C0.076,13.9
Mg0.9Al0.1B2,13.9
Mg0.8Al0.2B2,13.9
Mg0.97Fe0.03B2,13.9
Mg1B1.8Be0.2,13.9
B2Mg1,13.9
B2Mg0.5,13.9
Ba0.5K0.5Fe2As2O1,13.9
K0.4Sr0.6Fe2As2,13.9
Sr0.42K0.58Fe2As2,13.88
Ho1Fe1As1F0.1O0.9,13.87
La1.822Sr0.178Cu1O4,13.8
Ba0.5K0.5Fe2As2,13.8
Fe2As2Ca6Al1.32Ti2.68O12,13.8
Fe2As2Ca5Sc2Ti2O10,13.8
Fe2As2Ca4Sc2Ti3O13,13.8
Fe2As2Ca5Mg1Ti3O9.5,13.8
Ba0.7K0.3Fe2As2,13.8
La1Fe1As1H0.36O0.64,13.8
Na0.65Fe1.93Se1.8S0.2,13.8
Sm1Fe1As0.77P0.23H0.2O0.8,13.8
Eu1Rb1Fe4As4,13.8
Eu0.25Ca0.75Rb1Fe4As4,13.8
Ca1K1Fe4As4,13.8
Nd0.9Pr0.1Ba2Cu3O6.75,13.8
Nd1.35Ba1.65Cu3O7.02,13.8
Pb0.6Cu1Sr1La1O5.12,13.8
La1.8Nd0.2Cu1O4.086,13.8
Mg0.99Pb0.01B2,13.8
Mg0.98Al0.02B2,13.8
Mg0.983Al0.017B1,13.8
La1.85Sr0.15Cu1O4,13.8
Y0.85Pr0.15Ba2Cu3O6.5,13.8
Bi1.8Pb0.2Sr2Ca1Cu1.84Co0.16O8,13.8
Y1Ba2Cu3O6.4,13.8
Mg0.93Al0.07B2,13.7
Mg1B1.6C0.4,13.7
Mg1B1.924C0.076,13.7
Ba0.65Rb0.35Fe2As2,13.7
Ca1K1Fe4As4,13.7
La1.8Sr0.2Cu1O4,13.7
La1.85Sr0.15Cu1O4,13.7
Y1Ba2Cu3O6.45,13.7
Mg0.85Li0.15B2,13.7
La1.85Sr0.15Cu0.992Zn0.008O4,13.7
Tb1Fe1As1O0.8,13.7
C60Cs3,13.7
Ca0.7La0.3Fe1As1H1,13.7
La1.8Nd0.2Cu0.99Zn0.01O4.086,13.7
Mg0.94Li0.06B1.96C0.04,13.7
Sr0.6K0.4Fe2As2,13.7
La0.7Y0.3Fe1As1O0.6,13.7
Li0.8Fe1.2Se0.78S0.22H1O1,13.7
Mg0.9Li0.1B2,13.7
La1.8Sr0.2Cu1H0.1O4,13.7
Y0.85Ca0.15Sr1.5Ba0.5Cu2.5B0.5O7,13.7
Bi1.95Sr1.65La0.4Cu1O6.311,13.65
Y1Ba2Cu3O6.5,13.635
Mg1B0.96C0.04,13.6
Mg0.98Pb0.02B2,13.6
Mg0.92Al0.08B2,13.6
Mg1B1.924C0.076,13.6
Mg0.99Co0.01B2,13.6
Mg1B1.96C0.04,13.6
Mg1B1.904C0.096,13.6
La1.85Sr0.15Cu1O4,13.6
La1.85Sr0.15Cu1H0.1O4,13.6
La1.8Pr0.2Ca0.4Ba2Cu4.4O10.735,13.6
Mg1B1.9C0.1,13.6
Ba1Fe2As3,13.6
Hg1.4Tl0.6Ba2Y0.2Ca0.8Cu2O7.66,13.6
La1.8Nd0.2Cu1O4.07,13.6
Mg0.98Cr0.02B2,13.6
Mg0.89Li0.11B2,13.6
Ca1Rb1Fe1As4,13.6
Y1Ba2Cu2.79Zn0.21O7,13.6
La1.8Sr0.2Cu1O4,13.6
Ba0.4K0.6Fe2As2,13.56
Pr1Fe1As0.9P0.1F0.1O0.9,13.5
La1.85Sr0.15Cu0.995Zn0.005O4,13.5
La1.83Sr0.17Cu1O4,13.5
La1.85Sr0.15Cu1O4,13.5
Mg0.97Cr0.03B2,13.5
Mg0.86Al0.14B2,13.5
Ca0.85La0.15Fe1As2,13.5
Ca8.85La1.15Pt3Fe10As18,13.5
Ca0.8La0.2Fe0.956Co0.044As2,13.5
Sr1Rb1Fe4As4,13.5
Ca1K1Fe4As4,13.5
Nd0.1La1.7Sr0.2Cu1O4,13.5
Er1Ba2Cu3O6.15,13.5
La1.88Ba0.12Cu1O4,13.5
Y0.6Pr0.4Ba2Cu3O7,13.5
Sr0.86Nd0.14Cu1O2,13.5
Y1Sr1.2Ba0.8Cu2.5B0.5O7,13.5
Y1Sr0.4Ba1.6Cu2.5B0.5O7,13.5
Nd2Ba4Cu7O15.38,13.5
Y1Sr2Cu2.7Ti0.3O7.224,13.5
Bi1.95Sr1.65Pr0.4Cu1O4,13.5
Bi1.95Sr1.65Nd0.4Cu1O4,13.5
Hg1Ba2Cu1O4.1,13.5
La1Sm0.8Sr0.2Cu1O4,13.5
Yb0.8Ca0.2Ba0.8Sr0.4Cu3O6.85,13.5
Nd1.3Ba1.3Sr0.4O6.828,13.5
Sr1.5Ba0.5Y1Cu2.8Ti0.2O7,13.5
La2Cu1O4.035,13.5
Sr0.83Nd0.17Cu1O2,13.5
Nd0.9Pr0.1Ba1Ca1Cu3O7,13.5
Y1Ba2Cu3O6.43,13.5
Hg0.85Re0.15Ba2Cu1O4.58,13.5
Ru1Sr2Y1Cu2O8,13.48
Ru1Sr2Eu1Cu2O8,13.475
Ru1Sr2Gd1Cu2O8,13.45
La1.825Sr0.175Cu1O4,13.45
Tl1Ba1.5La0.5Cu1O5,13.42
La2Cu1O4.035,13.4
Y1Ba2Cu3F0.76O6,13.4
Lu0.55Pr0.45Ba1.7Sr0.3Cu3O6.92,13.4
Hg1Tl1Ba2Ca1Cu2O8,13.4
La1.715Nd0.125Sr0.16Cu1O4,13.4
La1.1Ba1.5Ca0.4Cu3O7.25,13.4
La1.5Ba1.4Ca0.1Cu3O6.964,13.4
La1.5Ba1.3Ca0.2Cu3O6.957,13.4
La1.665Pr0.185Sr0.15Cu1O4,13.4
La1.87Sr0.13Cu1O4,13.4
Y0.6Pr0.4Ba2Cu3O6.965,13.4
Ru1Sr2Gd1Cu2O8,13.4
Sm1Ba1.85Pr0.15Cu3O7.02,13.4
Y1Ba2Cu3O6.4,13.4
Y1Ba2Cu2.95Zn0.05O6.72,13.35
Y1Ba2Cu2.94Zn0.06O6.73,13.32
La1.865Sr0.135Cu1O4,13.3
Y0.7Ca0.3Ba2Cu3O6.12,13.3
C0.7N0.3Sr2Cu1O5.35,13.3
Hg1Ba2Cu1O4.37,13.3
Eu1.4Ce0.6Sr2Ru1Cu2O10,13.3
Tl1Sr2Ca0.4Y0.6Cu2O7,13.3
La1.84Sr0.16Cu0.99Fe0.01O4,13.3
La1.85Sr0.15Cu1O4,13.3
Ga1Sr2Y0.8Ca0.2Cu2O7,13.3
Ga1Sr2Y0.7Ca0.3Cu2O7,13.3
Ga1Sr2Y0.5Ca0.5Cu2O7,13.3
Mg0.94Pb0.06B2,13.3
Mg0.815Al0.024B2,13.3
C0.9S0.1,13.3
Mg1B1.96C0.04,13.3
Mg1B1.896C0.104,13.3
Sm0.96La0.84Sr0.2Cu1O4,13.3
Nd1Fe1As1F0.08O0.92,13.3
La1.834Sr0.166Cu1O4,13.3
Ba1Fe2As2,13.3
Ba0.5K0.5Fe2As2,13.3
Ba0.6K0.4Fe2As2,13.28
Ba0.68K0.32Fe1.954Co0.046As2,13.2
La1Fe1As1H0.6O0.6,13.2
La1Fe1As1H0.85,13.2
Li0.8Fe1.2Se0.72S0.28H1O1,13.2
Ca0.85La0.15Fe1As2,13.2
Eu1Cs1Fe4As4,13.2
Ca1Rb1Fe4As4,13.2
Ca1K1Fe4As4,13.2
La1Fe1As1H0.3O0.3,13.2
Ca10Pt4Fe10As18,13.2
La1.855Sr0.145Cu1O4,13.2
Eu2.17Ce0.5Sr1.33Cu2.5Co0.5O9.08,13.2
Pb0.5Cu1Sr0.8La1.2O5.1,13.1
Y0.74Ca0.16Sr2.1Cu2.78S0.22O7,13.1
La1.95Bi0.05Cu1O4.064,13.1
Mg0.988Fe0.012B2,13.1
C60Cs3,13.1
Y0.75Ca0.25Ba2Cu3O6.008,13.1
La1.78Sr0.22Cu1O3.945,13.1
Yb0.5Pr0.5Ba2Cu3O6.9,13.1
Pb0.6Cu1Sr0.8La1.2O5.11,13.1
La1.85Sr0.15Cu0.998Zn0.003O4,13.1
La1.8Nd0.2Cu1O4.071,13.1
Mg1B1.94C0.06,13.1
La1.85Sr0.15Cu0.998Co0.003O4,13.05
Tb1Fe1As1O0.75,13.05
La0.7Y0.3Fe1As1F0.1O0.9,13.05
Sr0.15La1.85Cu1O4,13.02
La1.85Sr0.15Cu1O4,13
Ca0.2Ba1.55La1.25Cu3O7.03,13
La2Cu1O4.017,13
Hg0.85Re0.15Ba2Cu1O4.58,13
Mg1B1.89C0.11,13
Mg0.978Al0.022B2,13
Mg0.91Al0.09B2,13
La1.82Sr0.18Cu1O4,13
Ba0.6K0.4Fe2As2,13
Y0.85Ca0.15Ba2Cu2.8Zn0.2O6.74,13
Y1Ba2Cu3.88Zn0.12O8,13
Tb1Sr2Cu2.69Mo0.31O7,13
Mg0.98Mn0.02B2,13
Mg0.9Co0.1B2,13
Sm1Fe0.97Ni0.03As1F0.12O0.88,13
Ca8.6La1.4Pt3Fe10As18,13
Ca0.8Ce0.2Fe0.975Co0.025As2,13
Sr2V1Fe1As1O3,13
La1.85Sr0.15Cu0.995Ni0.005O4,13
La1.812Sr0.188Cu1O4,13
Er0.5Pr0.5Ba2Cu3O6.82,13
La1.868Sr0.132Cu1O4,13
La1.883Sr0.117Cu1O4,13
Y1Ba2Cu3O6.45,13
La1.87Sr0.13Cu1O4,13
La1.73Sr0.27Cu0.94Ni0.06O4,13
Nd1Ba2Cu3O6.65,13
La1.35Pr0.5Sr0.15Cu1O4,13
Mg1B1.9C0.1,13
La1.943Sr0.178Cu1O4,13
Ba0.5K0.5Fe1.92Zn0.08As2,13
Ba0.5K0.5Fe1.8Zn0.2As2,13
Ba0.47K0.53Fe2As2,13
Ca1K1Fe4As4,13
Mg1B1.7C0.3,13
La1.8Sr0.2Cu1O4,13
La1.82Nd0.03Sr0.15Cu1O4,13
Sm1Ba2Cu3O6.62,13
Mg0.994Fe0.006B2,13
Mg1B1.8C0.2,13
Ba0.5K0.5Fe1.84Zn0.16As2,13
Ba0.6Na0.4Fe2As2,13
La1.9Sr0.1Cu1O4,13
La1.85Sr0.12Ca0.016Ba0.014Cu1O3.99,13
Nd1Fe1As0.8P0.2F0.1O0.9,13
La2Cu1O4.13,13
Y2Ba4Cu7O14.16,13
Bi2Sr2Gd1.64Ce0.36Cu2O10.24,13
La1.7Sr0.3Ca1Cu2O6,13
Tl1La1Sr1Cu1O5,13
Y1Sr2Cu2.65Fe0.35O6.7,13
La1.82Sr0.18Cu1O3.994,13
La1.83Sr0.17Cu1O4,13
Y1Ba2Cu3O6.4,13
Bi2Sr8Cu4C3O21,13
Er1Ba2Cu2.28Co0.18O6.74,13
Er1Ba2Cu2.82Co0.18O6.74,13
Bi1.95Sr1.65La0.4Cu1O6.298,13
Ba1.6Sr0.4Yb1Cu3O6.53,13
Ba1.6Sr0.4Yb0.75Ca0.25Cu3O6.3,13
La2Cu1O4.03,13
La2Cu1O4.044,13
La2Cu1O4.065,13
Tl1Ba1.6La0.4Cu1O5,13
Y1Ba2Cu3O6.62,13
La1.1Ba1.5Ca0.4Cu3O6.76,13
La1.88Sr0.12Cu1O4,13
Y1Ba1Sr1Cu3O6.685,13
La1.48Pr0.37Sr0.15Cu1O4,13
Nd0.7Pr0.3Ba1Sr1Cu3O6.87,13
La1.85Ca0.15Cu1O4,12.93
La1.84Ca0.16Cu1O4,12.9
La1.83Ca0.17Cu1O4,12.9
Eu0.6Pr0.4Ba1.5Sr0.5Cu3O6.89,12.9
La0.5Ca0.2Pr0.3Ba1.5Sr0.5Cu3O6.829,12.9
Eu1.5Ce0.5Sr2Ru1Cu2O10,12.9
Ru1Sr2Gd1.4Ce0.6Cu2O9.54,12.9
Mg1B1.95C0.05,12.9
Mg0.9Pb0.1B2,12.9
La1.77Sr0.23Cu0.94Mn0.06O4,12.9
Mg0.956Al0.044B2,12.9
Mg1B1.9C0.1,12.9
Mg0.8Li0.2B2,12.9
Mg0.75Co0.25B2,12.9
Mg0.9Fe0.1B2,12.9
Mg1B1.6C0.4,12.9
Mg0.8Zn0.1Al0.1B2,12.9
Sm0.9La0.9Sr0.2Cu1O4,12.9
Ba1Fe2As2,12.85
La1.73Sr0.27Cu0.94Co0.06O4,12.8
Nd1Fe0.85Ru0.15As1F0.11O0.89,12.8
La1.76Sr0.24Cu0.94Mn0.06O4,12.8
Ba0.6Rb0.4Fe2As2,12.8
Ca0.34Na0.66Fe2As2,12.8
Ba0.72K0.28Fe2As2,12.8
Ba0.5K0.5Fe2As2,12.8
Ca0.9La0.1Fe1As2,12.8
Ca0.84La0.16Fe1As2,12.8
Sr1Fe2As1.3P0.7,12.8
Li0.8Fe1.2H1Se1,12.8
Ca0.81La0.19Fe1As2,12.8
Ba0.6Na0.4Fe2As2,12.8
La0.8Y0.2Fe1As1O0.7,12.8
Ca8.5La1.5Pt3Fe10As18,12.8
Mg1B1.9C0.1,12.8
Y0.6Pr0.4Ba2Cu3O6.8,12.8
Y0.8Pr0.2Ba2Cu3O6.5,12.8
Y0.6Pr0.4Cu2.85Re0.15O7,12.8
Pb0.6Cu1Sr1.1La0.9O5.07,12.7
Ca10Pt4.3Fe9.7As18,12.7
Sr1Fe2As1.4P0.6,12.7
Bi1.8Pb0.2Sr2Ca1Cu1.92Fe0.08O8,12.7
Mg0.75Li0.25B2,12.7
Ba0.6Na0.4Fe2As2,12.7
Ca10Pt5.8Fe8.2As18,12.7
La1.75Sr0.25Cu0.96Ni0.04O4,12.7
La1.95Ba0.05Cu1O4,12.7
Y0.55Pr0.45Ba2Cu3O6.98,12.7
La1.85Sr0.15Cu0.99Ni0.01O4,12.7
La1.85Sr0.15Cu0.997Fe0.003O4,12.7
La1.87Sr0.13Cu1O4,12.7
Bi2Ca2.5Nd0.5Cu2O8.43,12.7
Pr0.2Ca0.8Ba1La1Cu3O7.1,12.7
La1.85Sr0.15Cu0.97Li0.03O4,12.7
Cu2Re0.25Sr2Y1.3Ce0.7O9.06,12.7
Y1Ba2Cu3O6.45,12.7
La1.725Nd0.125Sr0.15Cu1O4,12.7
Mg0.82Al0.18B2,12.7
Mg0.99Sn0.01B2,12.7
Ba0.5K0.5Fe1.88Zn0.12As2,12.7
Tl0.58Rb0.42Fe1.72Se2,12.7
La1Fe1As1F0.28O0.68,12.7
Pb2Cu2La1.1O6.28,12.7
Mg0.8Al0.2B2,12.66
Mg0.9Al0.1B2,12.6
Ca0.25Na0.75Fe2As2,12.6
K1Ca2Fe4As4F2,12.6
La1.8Sr0.2Cu1O4,12.6
Y1Ba1.9La0.1Cu3.95Zn0.05O8,12.6
Mg0.97Mn0.03B2,12.6
Mg1B1.874C0.126,12.6
Mg1B1.6C0.4,12.6
La1.943Sr0.13Cu1O4,12.6
La1.815Sr0.185Cu1O3.964,12.6
Pb2Sr0.9La1.1Cu2O6.31,12.6
Mg0.98Ir0.02B2,12.6
La1.84Sr0.05Ca0.11Cu1O4,12.6
Ca0.88Ce0.12Fe2As2,12.6
Ba0.5Na0.5Fe2As2,12.6
La0.8Y0.2Fe1As1F0.11O0.89,12.6
Mg1B1.868C0.132,12.6
La1.895Ba0.105Cu1O4,12.6
Ba0.72K0.28Fe2As2,12.6
Ba0.65Na0.35Fe2As2,12.6
Ca1K1Fe4As4,12.54
Ba0.45K0.55Fe2As2,12.5
Y1Ba2Cu2.7Fe0.3O7,12.5
Y1.01Ba2.03Cu2.808Li0.192O6.6,12.5
Gd1Ba2Cu2.7Co0.3O6.9,12.5
Y1Ba2Cu3O6.4,12.5
Eu0.1La1.7Sr0.2Cu1O4,12.5
La1.85Sr0.15Cu1O4,12.5
Tl0.6La1Sr1Cu1.4O5,12.5
Cs2Rb1C60,12.5
Y1Sr2Cu2.7Re0.3O7.1,12.5
Y1Sr2Cu2.75W0.25O6.9,12.5
La1.82Sr0.18Cu1O3.987,12.5
La1.855Sr0.145Cu0.99Ni0.01O4,12.5
La1.9Sr0.1Cu1O4,12.5
Bi1.95Sr1.75La0.3Cu1O4,12.5
Y1Ba2Cu2.9Fe0.1O6.72,12.5
Nd1.3Ba1.7Cu3O6.987,12.5
Nd1Ba1Ca1Cu3O7,12.5
La1.86K0.14Cu1O3.97,12.5
Bi0Mo0.33Cu2.67Sr2Y1O7.41,12.5
La1.8Sr0.2Cu1O4,12.5
Y1Ba2Cu3O6.45,12.5
Y0.65Pr0.35Ba2Cu3O6.95,12.5
La1.862Sr0.138Cu1O4,12.5
La1.812Sr0.188Cu1O4,12.5
La1.835Sr0.165Cu0.995Ni0.005O4,12.5
La1.295Pr0.555Sr0.15Cu1O4,12.5
Bi2Sr1.56La0.44Cu1O6,12.5
La1.85Sr0.15Cu1O3.99,12.5
La1.82Ca0.18Cu1O4,12.5
C0.8N0.2Sr2Cu1O5.3,12.5
La0.75Ca0.05Pr0.2Ba1.5Sr0.5Cu3O6.886,12.45
Eu1.3Ce0.7Sr2Ru1Cu2O10,12.44
Y0.8Pr0.2Ba2Cu3.95Fe0.05O8,12.4
La1.85Sr0.15Cu0.99Fe0.01O4,12.4
La1.81Sr0.19Cu0.98Ti0.02O4,12.4
Ru1Sr2Eu1.5Ce0.5Cu2O9.6,12.4
Mg0.927Al0.073B1,12.4
Mg0.8Al0.2B2,12.4
Rb1Cs2C60,12.4
Cs2Rb1C60,12.4
Mg1B1.84C0.16,12.34
Mg1B1.89C0.11,12.33
La1.85Sr0.15Cu0.995Ni0.005O4,12.3
La1.85Sr0.15Cu0.995Co0.005O4,12.3
Sm1Fe1As1F0.07O0.93,12.3
Sr2V1Fe1As1O3,12.3
La1.71Sr0.29Cu0.94Co0.06O4,12.3
K0.8Fe2Se2,12.3
Ca0.33Na0.66Fe2As2,12.3
La1.79Sr0.21Cu1O4,12.3
Fe2As2Ca5Sc2Ti2O10.5,12.3
Eu0.5K0.5Fe2As2,12.3
Ca0.32Na0.68Fe2As2,12.3
Sm1Fe1As1F0.075O0.925,12.3
Mg1B2,12.3
Tl2Ba2Cu1O6,12.3
K1Ca2Fe4As4F2,12.3
Y1Ba1.9La0.1Cu3O6.5,12.3
La1.8Sr0.2Cu1O4,12.3
Mg0.8Al0.1Li0.1B2,12.3
Mg1B1.7Be0.3,12.3
Mg1B1.88C0.12,12.25
Mg0.97Fe0.03B2,12.25
Ru1Sr2Eu1Cu2O8,12.22
La1.87Sr0.13Cu0.98Li0.02O4,12.2
Ru0.95Rh0.05Sr2Gd1Cu2O8,12.2
Sm1Ba2Cu3O6.65,12.2
La1.77Sr0.23Cu0.96Ti0.04O4,12.2
Ba0.5Na0.5Fe2As2,12.2
Ca8.87La1.13Pt3Fe10As18,12.2
Ce1Fe1As1F0.1O0.9,12.2
K1Ca2Fe4As4F2,12.2
Mg0.815Al0.09B2,12.2
La1.85Sr0.15Cu0.996Zn0.004O4,12.2
Ba0.45K0.55Fe2As2,12.2
La1.85Sr0.15Cu0.993Ni0.007O4,12.2
La1.8Sr0.2Cu1O4,12.2
Sr0.7Y0.3Cu1O2,12.2
Bi1.95Sr1.65La0.4Cu1O6.28,12.2
La0.85Pr1Sr0.15Cu1O4,12.2