formula,Tc,type
Ba1.72Ca0.18Cu1.39O1.07Y1.32,35.0,original
Cu0.13N1.68O0.85Sr3.22,35.0,original
Ba1.72Cu0.13Hg7.24O0.58,35.0,original
Ce3.41Cu0.76Eu9.58O2.15Ru2.65Sr3.22,35.0,original
Ca0.3Cu0.76O1.31Sr3.22Tl4.41Y1.09,35.0,original
Cu0.13La2.32O0.48,35.0,original
Cu0.76Ga1.1O1.31Sr3.22Y1.56,35.0,original
Ca0.18Cu0.76Ga1.1O1.31Sr3.22Y1.32,35.0,original
Ca0.43Cu0.76Ga1.1O1.31Sr3.22Y0.85,35.0,original
B1.62Mg2.97,35.0,original
B1.62Mg2.56,35.0,original
,35.0,original
B1.58Mg3.17,35.0,original
B1.53Mg3.17,35.0,original
Cu0.13La0.89O0.48Sm6.53,35.0,original
As0.65F0.3Fe1.02Nd4.84,35.0,original
Cu0.13La2.31O0.48,35.0,original
As1.47Ba0.64Fe2.3,35.0,original
As1.47Ba0.1Fe2.3K2.59,35.0,original
As1.47Ba0.21Fe2.3K2.05,35.0,original
As1.47Ba0.3Fe2.24K1.61,35.0,original
As0.65Fe1.02H2.12La1.11,35.0,original
As0.65Fe1.02H3.03La1.11,35.0,original
Fe1.28H3.58Li5.77S0.14Se0.37,35.0,original
As1.47Ca0.86Fe1.02,35.0,original
As3.12Cs10.49Eu6.81Fe4.86,35.0,original
As3.12Ca1.05Fe4.86Rb5.68,35.0,original
As3.12Ca1.05Fe4.86K5.32,35.0,original
As0.65Fe1.02H1.02La1.11,35.0,original
As14.67Ca12.24Fe12.54Pt9.58,35.0,original
Cu0.13La2.34O0.48,35.0,original
Ce2.81Co2.14Cu1.08Eu14.91O1.89Sr2.04,35.0,original
Cu0.13La1.4O0.78Pb1.51Sr1.11,35.0,original
Cu1.25O1.31Sr3.4Y1.42,35.0,original
Cu0.13La2.48O0.49,35.0,original
B1.62Mg3.13,35.0,original
C10.41Cs31.6,35.0,original
Ba1.72Ca0.12Cu1.39O1.04Y1.44,35.0,original
Cu0.13La2.23O0.46,35.0,original
Ba1.72Cu1.39O1.28Pr0.36Yb4.91,35.0,original
Cu0.13La1.4O0.79Pb1.83Sr1.11,35.0,original
Cu0.13La2.26Nd0.84O0.5,35.0,original
B1.56Mg3.17,35.0,original
As0.65Fe1.02Tb13.87,35.0,original
As0.65F0.41Fe1.02La0.68Y0.37,35.0,original
Ba1.24Cu1.39La1.47O1.32,35.0,original
Cu0.13La2.55O0.48,35.0,original
B1.52Mg3.17,35.0,original
B1.62Mg3.1,35.0,original
B1.62Mg2.88,35.0,original
Cu0.13La2.29O0.48,35.0,original
Ba1.72Cu1.27O1.24Y1.68Zn0.38,35.0,original
Ba1.72Cu1.95O1.59Y2.04Zn0.21,35.0,original
Cu1.2Mo0.23O1.31Sr3.22Tb13.87,35.0,original
B1.62Mg3.11Mn0.24,35.0,original
B1.62Co0.32Mg2.84,35.0,original
As0.65F0.51Fe0.98Sm6.8,35.0,original
As14.67Ca10.5Fe12.54La1.69Pt7.15,35.0,original
As1.47Ca0.8Ce1.01Fe0.99,35.0,original
As0.65Fe1.02O0.2Sr3.22V0.73,35.0,original
Cu0.13La2.28O0.48,35.0,original
Ba1.72Cu1.39Er3.78O1.26Pr0.36,35.0,original
Ba1.72Cu1.39O1.16Y2.04,35.0,original
La2.16O0.48Sr0.17,35.0,original
Ba1.72Cu1.39Nd4.84O1.21,35.0,original
Cu0.13La1.62O0.48Pr0.36,35.0,original
Cu0.13La2.47O0.48,35.0,original
As1.47Ba0.1Fe2.2K2.59Zn0.13,35.0,original
As1.47Ba0.1Fe2.05K2.59Zn0.38,35.0,original
As1.47Fe2.3K2.76,35.0,original
B1.35Mg3.17,35.0,original
Cu0.13La2.26O0.48,35.0,original
Ba1.72Cu1.39O1.21Sm6.8,35.0,original
B1.62Mg3.15,35.0,original
B1.44Mg3.17,35.0,original
As1.47Ba0.1Fe2.1K2.59Zn0.29,35.0,original
As1.47Ba0.21Fe2.3Na1.53,35.0,original
Cu0.13La2.4O0.48,35.0,original
Cu0.13La2.33O0.47,35.0,original
As0.48F0.41Fe1.02Nd4.84P0.29,35.0,original
Cu0.13La2.33O0.48,34.0,original
Cu0.13La2.55O0.51,34.0,original
Ba3.88Cu3.91O3.31Y4.44,34.0,original
Bi3.16Ce1.97Cu0.76Gd14.75O2.22Sr3.22,34.0,original
Ca1.05Cu0.76La2.12O1.03Sr0.22,34.0,original
Cu0.13La1.11O0.75Sr1.46Tl4.41,34.0,original
Cu1.17Fe0.19O1.23Sr3.22Y2.04,34.0,original
Cu0.13La2.29O0.47,34.0,original
Cu0.13La2.3O0.48,34.0,original
Ba1.72Cu1.39O1.15Y2.04,34.0,original
Bi3.16C0.41Cu2.02O5.22Sr13.79,34.0,original
Ba1.72Co0.68Cu0.94Er7.65O1.24,34.0,original
Ba1.72Co0.68Cu1.28Er7.65O1.24,34.0,original
Bi3.08Cu0.13La0.25O1.12Sr2.6,34.0,original
Ba1.29Cu1.39O1.18Sr0.4Yb9.91,34.0,original
Ba1.29Ca0.12Cu1.39O1.12Sr0.4Yb7.41,34.0,original
Cu0.13La2.55O0.48,34.0,original
Cu0.13La2.55O0.49,34.0,original
Ba1.29Cu0.13La0.25O0.75Tl4.41,34.0,original
Ba1.72Cu1.39O1.21Y2.04,34.0,original
Ba1.18Ca0.3Cu1.39La1.26O1.25,34.0,original
Cu0.13La2.38O0.48,34.0,original
Ba0.64Cu1.39O1.22Sr1.46Y2.04,34.0,original
Cu0.13La1.8O0.48Pr0.26,34.0,original
Ba0.64Cu1.39Nd3.34O1.28Pr0.21Sr1.46,34.0,original
Cu0.13La2.32O0.48,34.0,original
Ba1.18Cu1.39Eu4.04O1.28Pr0.28Sr0.58,34.0,original
Ba1.18Cu1.39La0.4O1.26Pr0.21Sr0.58,34.0,original
Ce2.81Cu0.76Eu10.27O2.15Ru2.65Sr3.22,34.0,original
Ce3.41Cu0.76Gd12.57O2.02Ru2.65Sr3.22,34.0,original
B1.57Mg3.17,34.0,original
B1.62Mg2.84Pb0.21,34.0,original
La2.22Mn0.81O0.48Sr0.1,34.0,original
B1.62Mg3.03,34.0,original
B1.53Mg3.17,34.0,original
B1.62Li1.37Mg2.51,34.0,original
B1.62CoMg2.35,34.0,original
B1.62Mg2.84,34.0,original
B1.26Mg3.17,34.0,original
B1.62Mg2.51Zn0.17,34.0,original
Cu0.13La0.97O0.48Sm6.11,34.0,original
As1.47Ba0.64Fe2.3,34.0,original
Co0.14La2.16O0.48Sr0.17,34.0,original
As0.65F0.46Fe0.83Nd4.84Ru0.27,34.0,original
La2.2Mn0.81O0.48Sr0.12,34.0,original
As1.47Ba0.21Fe2.3Rb2.22,34.0,original
As1.47Ca0.23Fe2.3Na2.56,34.0,original
As1.47Ba0.34Fe2.3K1.4,34.0,original
As1.47Ba0.1Fe2.3K2.59,34.0,original
As1.47Ca0.92Fe1.02,34.0,original
As1.47Ca0.85Fe1.02,34.0,original
As0.9Fe2.3P1.22Sr1.46,34.0,original
Fe1.28H3.58Li5.77Se0.54,34.0,original
As1.47Ca0.81Fe1.02,34.0,original
As1.47Ba0.21Fe2.3Na1.53,34.0,original
As0.65Fe1.02La0.83Y0.13,34.0,original
As14.67Ca10.38Fe12.54La1.83Pt7.15,34.0,original
Ba1.72Cu1.39O1.26Pr0.28Y1.09,34.0,original
Ba1.72Cu1.39O1.17Pr0.13Y1.56,34.0,original
Cu1.3O1.31Pr0.28Re0.17Y1.09,34.0,original
Cu0.13La0.97O0.77Pb1.83Sr1.63,34.0,original
As14.67Ca12.24Fe12.15Pt10.31,34.0,original
As0.98Fe2.3P1.03Sr1.46,34.0,original
Bi2.82Ca1.05Cu0.71O1.59Pb0.53Sr3.22,34.0,original
B1.62Li1.73Mg2.35,34.0,original
As14.67Ca12.24Fe10.23Pt13.96,34.0,original
Cu0.11La2.19O0.48Sr0.14,34.0,original
Cu0.13La2.48O0.48,34.0,original
Ba1.72Cu1.39O1.31Pr0.32Y0.97,34.0,original
Cu0.13La2.36O0.48,34.0,original
Bi3.16Ca2.91Cu0.76Nd2.34O1.71,34.0,original
Ba0.64Ca0.8Cu1.39La1.11O1.34Pr0.13,34.0,original
Cu0.12La2.33Li0.12O0.48,34.0,original
Ce4.01Cu0.76O1.89Re0.32Sr3.22Y2.76,34.0,original
Ba1.72Cu1.39O1.16Y2.04,34.0,original
Cu0.13La2.15Nd0.47O0.48,34.0,original
Al0.12B1.62Mg2.58,34.0,original
B1.62Mg3.14,34.0,original
As1.47Ba0.1Fe2.15K2.59Zn0.21,34.0,original
Fe1.94Rb2.34Se1.15Tl2.5,34.0,original
As0.65F1.35Fe1.02La1.11,34.0,original
Cu0.76La1.26O1.11Pb6.37,34.0,original
Al0.14B1.62Mg2.51,34.0,original
As1.47Ca0.12Fe2.3Na2.92,34.0,original
As3.12Ca2.29F10.35Fe4.86K5.32,34.0,original
Cu0.13La2.26O0.48,34.0,original
Ba1.61Cu1.99O1.59Y2.04,34.0,original
B1.62Mg3.07Mn0.38,34.0,original
B1.51Mg3.17,34.0,original
Cu0.13La2.47O0.48,34.0,original
Cu0.13La2.28O0.47,34.0,original
Cu0.76La1.26O1.12Pb6.37Sr1.28,34.0,original
B1.62Mg3.11,34.0,original
As1.47Ca0.9Ce0.53Fe2.3,34.0,original
As1.47Ba0.1Fe2.3Na1.93,34.0,original
As0.65F0.46Fe1.02La0.83Y0.13,34.0,original
B1.5Mg3.17,34.0,original
Cu0.13La2.4O0.48,34.0,original
As1.47Ba0.27Fe2.3Na1.33,34.0,original
As3.12Ca1.05Fe4.86K5.32,34.0,original
As1.47Fe2.3K2.87,34.0,original
Ba1.72Cu1.2Fe0.13O1.31Y2.04,33.0,original
Ba1.75Cu1.27Li1.31O1.2Y2.07,33.0,original
Ba1.72Co1.23Cu1.2Gd8.95O1.28,33.0,original
Ba1.72Cu1.39O1.15Y2.04,33.0,original
Cu0.13Eu0.58La2.12O0.48,33.0,original
Cu0.13La2.33O0.48,33.0,original
Cu0.39La1.11O0.75Sr1.46Tl2.6,33.0,original
C10.41Cs21.05Rb5.68,33.0,original
Cu1.2O1.34Re0.39Sr3.22Y2.04,33.0,original
Cu1.24O1.28Sr3.22W1.26Y2.04,33.0,original
Cu0.13La2.29O0.47,33.0,original
Cu0.13La2.34O0.48,33.0,original
Cu0.13La2.4O0.48,33.0,original
Bi3.08Cu0.13La0.11O0.48Sr2.78,33.0,original
Ba1.72Cu1.33O1.23Y2.04,33.0,original
Ba1.4Cu1.39Nd6.34O1.31,33.0,original
Ba0.64Ca1.05Cu1.39Nd4.84O1.31,33.0,original
Cu0.13K0.63La2.35O0.47,33.0,original
Cu1.19Mo0.26O1.43Sr3.22Y2.04,33.0,original
Cu0.13La2.26O0.48,33.0,original
Ba1.72Cu1.39O1.16Y2.04,33.0,original
Ba1.72Cu1.39O1.3Pr0.24Y1.21,33.0,original
Cu0.13La2.35O0.48,33.0,original
Cu0.13La2.28O0.48,33.0,original
Cu0.13La2.31O0.48,33.0,original
Cu0.13La1.54O0.48Pr0.4,33.0,original
Bi3.16Cu0.13La0.31O1.03Sr2.44,33.0,original
Cu0.13La2.33O0.47,33.0,original
Cu0.13La2.29O0.48,33.0,original
Cu0.13N1.09O0.84Sr3.22,33.0,original
Ba1.18Cu1.39La0.76O1.28Pr0.13Sr0.58,33.0,original
Ce4.01Cu0.76Eu8.89O2.15Ru2.65Sr3.22,33.0,original
Ba1.72Cu1.99O1.59Pr0.13Y1.56,33.0,original
Cu0.12La2.28O0.48,33.0,original
Ce2.81Cu0.76Eu10.27O2.04Ru2.65Sr3.22,33.0,original
B0.73Mg2.93,33.0,original
Al0.14B1.62Mg2.51,33.0,original
B1.48Mg3.17,33.0,original
B1.52Mg3.17,33.0,original
As0.65F0.25Fe1.02Sm6.8,33.0,original
As0.65Fe1.02O0.2Sr3.22V0.73,33.0,original
Co0.14La2.13O0.48Sr0.21,33.0,original
Fe2.3K4.23Se1.15,33.0,original
As1.47Ca0.22Fe2.3Na2.56,33.0,original
Cu0.13La2.25O0.48,33.0,original
As1.47Ca6.02Fe2.3O2.29Sc9.97Ti8.52,33.0,original
As1.47Eu3.35Fe2.3K2.59,33.0,original
As1.47Ca0.2Fe2.3Na2.64,33.0,original
As0.65F0.28Fe1.02Sm6.8,33.0,original
B1.62Mg3.17,33.0,original
Ba1.72Cu0.13O1.03Tl8.96,33.0,original
As3.12Ca2.29F10.35Fe4.86K5.32,33.0,original
Ba1.61Cu1.39O1.17Y2.04,33.0,original
B1.62Li0.63Mg2.51,33.0,original
B1.35Be0.23Mg3.17,33.0,original
B1.51Mg3.17,33.0,original
B1.62Mg3.07,33.0,original
Cu0.76Eu6.81O1.59Ru2.65Sr3.22,33.0,original
Cu0.12La2.36O0.48,33.0,original
Cu0.76Gd8.95O1.59Ru2.51Sr3.22,33.0,original
Ba1.72Cu1.39O1.21Sm6.8,33.0,original
Cu0.11La2.22O0.48Sr0.1,33.0,original
As1.47Ba0.1Fe2.3Na1.93,33.0,original
As14.67Ca10.84Fe12.54La1.3Pt7.15,33.0,original
As0.65Ce5.81F0.41Fe1.02,33.0,original
B1.62Mg2.56,33.0,original
As1.47Fe2.3K2.87,33.0,original
Cu0.13Sr0.93Y0.37,33.0,original
Bi3.08Cu0.13La0.25O1.11Sr2.6,33.0,original
Cu0.13La0.9O0.48Pr0.75,33.0,original
As0.65F0.93Fe1.02Nd4.84,33.0,original
Fe2.3K4.5Se1.03,33.0,original
Fe1.8Rb4.36Se1.15,33.0,original
Ba1.72Cu1.3O1.28Y2.04Zn0.27,33.0,original
Cu0.13Ho0.36La2.28O0.48,33.0,original
As0.65Fe1.02La0.83Y0.13,33.0,original
La2.16O0.48Sr0.17,33.0,original
La2.13O0.48Sr0.21,33.0,original
Co0.14La2.22O0.48Sr0.1,33.0,original
As1.47Eu3.42Fe2.3K2.54,33.0,original
As1.47Ba0.16Fe2.24K2.32,33.0,original
As0.65Fe1.02H2.49La1.11,33.0,original
Fe2.08K4.39Se1.15,33.0,original
As1.47Ca0.87Fe2.3,33.0,original
Ba1.72Cu1.32O1.31Y2.04Zn0.37,33.0,original
Cu0.13La2.37O0.48,33.0,original
Ba1.72Cu1.39O1.15Y1.56,33.0,original
B1.62Mg2.89,33.0,original
Al0.19B1.62Mg2.35,33.0,original
Fe1.66K4.23Se1.15,33.0,original
Fe1.79Rb4.51Se1.15,33.0,original
Fe1.79Rb4.54Se1.15,33.0,original
Fe1.79Rb4.18Se1.15,33.0,original
Fe1.79Rb4.53Se1.15,33.0,original
Cu0.13La2.39O0.48,33.0,original
Cu0.12La2.33O0.48,33.0,original
B1.62Mg3.04Mn0.52,33.0,original
As14.67Ca10.3Fe12.54La1.92Pt7.15,33.0,original
Cu0.13La2.43O0.48,33.0,original
Ba1.29Cu1.39La0.25O1.31Y2.04,33.0,original
Cu0.76Gd8.04O1.59Ru2.65Sr3.22,33.0,original
Fe1.99K4.23Se1.15,33.0,original
As14.67Ca12.24Fe12.41Pt9.83,33.0,original
Ba3.88Cu3.91O3.39Y4.44,33.0,original
B1.62Mg2.84,33.0,original
B1.62Li2.1Mg2.19,33.0,original
Cu0.12La2.26Mn0.24O0.48,32.0,original
Cu0.13La2.12O0.48Sm0.57,32.0,original
Ba1.72Cu1.17Fe0.2O1.31Y2.04,32.0,original
Ba1.72Cu1.39O1.28Pr0.28Y1.09,32.0,original
Cu0.13La2.23O0.48,32.0,original
Cu0.13La2.33O0.48,32.0,original
Ba1.72Cu1.17Fe0.2O1.35Y2.04,32.0,original
Cu0.13La2.41O0.48,32.0,original
Ba0.21Bi1.47K2.05O0.2,32.0,original
Cu0.13La2.55O0.48,32.0,original
Ba1.4Cu1.39Nd6.34O1.35,32.0,original
Cu0.13La2.55O0.5,32.0,original
Cu0.13La2.37O0.48,32.0,original
Cu0.13O0.75Sr3.22,32.0,original
Bi3.08Cu0.13O0.48Pr0.21Sr2.78,32.0,original
Ba0.64Bi1.47K5.32O0.2,32.0,original
Ba1.4Cu1.39La1.54O1.28Sr1.46,32.0,original
Cu0.13La2.26O0.48,32.0,original
Ba0.1Cu1.27Ga0.18O1.3Sr2.34Y2.04,32.0,original
Cu0.13H0.66La2.26O0.48,32.0,original
Cu0.13La1.11O0.8Pb1.83Sr1.46,32.0,original
Ca6.02Cr0.23Cu3.6O3.59Sr3.22,32.0,original
Ba0.24Bi1.47K1.89O0.2,32.0,original
Ba1.72Cu1.39O1.3Pr0.28Y1.09,32.0,original
Cu0.13La2.38O0.48,32.0,original
Ce2.81Cu0.76Eu10.27O2.15Ru2.65Sr3.22,32.0,original
Cu0.13La2.4O0.47,32.0,original
Cu0.13La2.28O0.48,32.0,original
Cu0.76Eu6.81O1.59Ru2.65Sr3.22,32.0,original
Cu0.13La1.11O0.75Sr1.46Tl4.41,32.0,original
Ca0.18Cu0.13La1.11O0.75Sr0.93Tl4.41,32.0,original
Cu0.13La1.11O1.59Sr1.46Tl4.41,32.0,original
Cu0.13La2.55O0.49,32.0,original
Bi3.16Cu0.13La0.25O1.03Sr2.52,32.0,original
Cu0.13La2.31O0.48,32.0,original
Cu0.13La1.3O0.48Pr0.53,32.0,original
Cu0.13La1.01O0.48Pr0.69,32.0,original
Cu0.13La2.36O0.48,32.0,original
Ba1.72Cu2.02O1.59Pr0.44Y0.61,32.0,original
Ba1.18Cu1.39Gd8.95O1.23Sr0.58,32.0,original
Ba1.72Cu1.2Er7.65O1.27Zn0.58,32.0,original
Ba1.72Cu1.19Er7.65O1.3Zn0.46,32.0,original
Cu0.13La2.35O0.48,32.0,original
Ba0.86Cu1.39Eu6.81O1.28Pr0.21Sr0.58,32.0,original
Ba1.29Cu1.39Eu6.12O1.2,32.0,original
Ce2.21Cu0.76Eu10.96O2.15Ru2.65Sr3.22,32.0,original
Cu0.13Ho0.36La2.28O0.48,32.0,original
Ce2.81Cu1.08Eu10.27Nd1.09O1.87Pb1.51Sr2.78,32.0,original
B1.47Mg3.17,32.0,original
B1.62Mg3.13,32.0,original
B1.62LiMg2.19,32.0,original
B1.62Mg2.56,32.0,original
B1.44Mg3.17,32.0,original
B1.62Mg2.35,32.0,original
As1.47Eu3.35Fe2.3K2.59,32.0,original
As1.47Ba0.21Fe2.3K2.05,32.0,original
As1.47Ba0.1Fe2.3K2.59,32.0,original
As1.47Ba0.16Fe2.3K2.32,32.0,original
,32.0,original
As0.65F0.41Fe1.02La0.83Y0.13,32.0,original
Cu0.13Nd9.83O0.48,32.0,original
Fe2.03K3.58Se1.15,32.0,original
Fe2.3K4.23Se1.15,32.0,original
Fe1.83K4.34Se1.15,32.0,original
Fe1.83Rb1.88Se1.15Tl2,32.0,original
Fe1.55K3.41Se1.15,32.0,original
Fe2.06Rb4.99Se1.15,32.0,original
Fe1.79Rb2.22Se1.15Tl1.69,32.0,original
Fe1.87K4.56Se1.15,32.0,original
Fe4.86Rb11.45Se2.99,32.0,original
Fe1.89Rb4.53Se1.15,32.0,original
Fe1.88K3.9S0.28Se0.91,32.0,original
As0.65Fe1.02Tb13.87,32.0,original
Al0.98As1.47Ca7.27Fe2.3O2.43Ti12.85,32.0,original
Fe2.22K4.23Mn0.91Se1.15,32.0,original
Fe1.92K4.23Se1.15,32.0,original
Fe2.02K4.23Se1.15,32.0,original
Fe1.88Rb2.22Se1.15Tl2.6,32.0,original
As1.47Ba0.36Fe2.3K1.29,32.0,original
Fe1.28H3.58Li5.77S0.29Se0.29,32.0,original
Fe2.21Na2.52S0.28Se0.91,32.0,original
Fe1.92Rb4.53Se1.15,32.0,original
As1.47Eu4.73Fe2.3Na1.14,32.0,original
As0.65Fe1.02H2.05La1.11,32.0,original
Fe1.79Rb4.24Se1.15,32.0,original
As14.67Ca12.24Fe11.9Pt10.8,32.0,original
As0.35Ba0.64Fe2.3P2.45,32.0,original
Cu0.13La1.11O0.78Pb1.51Sr1.46,32.0,original
Cu0.13Sr1.19,32.0,original
Fe1.74K3.03Se1.15,32.0,original
Fe2.24K4.23Mn0.65Se1.15,32.0,original
Ba1.3Cu1.39O1.33Sm9.5,32.0,original
Ba0.27Bi1.47K1.78O0.2,32.0,original
Cu0.13La2.4O0.48,32.0,original
Cu0.13La2.19Nd0.35O0.48,32.0,original
Co0.14La2.28O0.48,32.0,original
Co0.14La2.25O0.48,32.0,original
Fe1.88Rb2.22Se1.15Tl1.69,32.0,original
As14.67Ca10.35Fe12.54Pr1.15Pt7.15,32.0,original
As1.47Ba0.34Fe2.3K1.4,32.0,original
As0.65F0.46Fe1.02La0.83Y0.13,32.0,original
Fe2.3Rb4.53Se1.15,32.0,original
Cu0.13La2.32O0.48,32.0,original
Cu0.13La2.32O0.47,32.0,original
As1.47Ca0.7Fe2.3,32.0,original
Cu0.13La1.26O0.8Pb1.83Sr1.28,32.0,original
Cu0.13La2.26Nd0.11O0.48,32.0,original
Cu0.13La2.26Nd0.11O0.46,32.0,original
B1.62Mg2.91,32.0,original
As3.12Ca1.05Cs10.49Fe4.86,32.0,original
Ba1.72Cu1.92O1.59Y2.04Zn0.29,32.0,original
Ce4.01Cu0.76O1.82Sr3.22W1.26Y2.76,32.0,original
Ba1.72Cu1.39O1.16Y2.04,32.0,original
Ca1.05Cu0.76O1.27Sr3.22Tl4.41,32.0,original
Ba0.22Bi1.47K2O0.2,32.0,original
B1.62Mg2.68,32.0,original
B1.62Co2.14Mg1.53,32.0,original
As1.47Fe2.3O1.03Sr6.74V1.53,32.0,original
La2.22O0.48Sr0.1,32.0,original
Fe1.94Rb2.34Se1.15Tl2.5,32.0,original
Fe2.26K4.23Mn0.38Se1.15,32.0,original
Ba1.72Cu1.39Nd3.84O1.31Pr0.13,32.0,original
Cu0.13La0.61O0.48Pr0.9,32.0,original
As0.65F0.41Fe1.02La0.4Y0.85,32.0,original
Fe1.59K3.85S0.19Se0.96,32.0,original
B1.53Mg3.17,32.0,original
Fe1.92Rb2.22Se1.15Tl1.69,32.0,original
Fe2.3Rb2.22Se1.15Tl1.69,32.0,original
Cu0.76La1.26O1.1Pb6.37,32.0,original
C10.41Cs10.49Rb11.45,32.0,original
Cu0.13Nd8.84O0.48,32.0,original
As0.65Ce5.81Fe1.02H0.18,32.0,original
As0.65F0.51Fe0.98Mn0.38Sm6.8,32.0,original
As0.65F0.46Fe0.98Mn0.45Sm6.8,32.0,original
Cu0.13La2.3O0.48,32.0,original
Ba0.21Bi1.47K2.08O0.2,32.0,original
Bi3.16Cu0.13La0.25O1.13Sr2.52,32.0,original
B1.62Mg3.14,32.0,original
Cu0.13La2.43O0.48,32.0,original
Ba1.72Cu1.39O1.17Y2.04,32.0,original
Fe2.3K4.56Se1.04,32.0,original
Ba1.72Cu1.14Fe0.26O1.31Y2.04,31.0,original
Cu0.13La2.33O0.48,31.0,original
C10.41Cs10.49Rb11.45,31.0,original
Cu0.13La2.38O0.48,31.0,original
Cu1.24Mo0.16O1.34Sr3.22Y2.04,31.0,original
Cu0.13La2.4O0.48,31.0,original
Ca1.05Cu0.76O1.31Pb0.86Sr3.22Tl3.05,31.0,original
Bi3.16Ca0.43Cu0.76I10.24O1.59Sr3.22Y0.85,31.0,original
Cu0.13La2.26O0.48,31.0,original
Cu0.13La2.49Na1.53O0.48,31.0,original
Cu1.39O1.59Pb6.37Sr3.22Y2.04,31.0,original
Ba1.72Co0.96Cu1.24Er7.65O1.24,31.0,original
Cu0.13O0.75Sr3.22,31.0,original
Cu0.13La0.97O0.79Pb1.83Sr1.63,31.0,original
Ba0.2Bi1.47K2.1O0.2,31.0,original
Cu1.19Mo0.18O1.4Sr3.22Y2.04,31.0,original
Ba1.72Cu1.98O1.59Y2.04Zn0.11,31.0,original
Ba1.72Cu1.14Dy10.45Ni0.81O1.27,31.0,original
Cu0.13La2.35O0.48,31.0,original
Cu0.13La2.41O0.48,31.0,original
Cu0.76Gd8.95O1.59Ru1.53Sn0.25Sr3.22,31.0,original
Cu0.13La2.37O0.48,31.0,original
Cu0.13N1.09O0.85Sr3.22,31.0,original
Cu0.13N1.09O0.88Sr3.22,31.0,original
Cu0.13N1.68O0.88Sr3.22,31.0,original
Cu0.13N1.68O0.91Sr3.22,31.0,original
Cu0.12La2.3O0.48,31.0,original
Ba0.24Bi1.47K1.89O0.2,31.0,original
Ca2.29Cl18.51Cu0.13,31.0,original
C10.41Rb17.22,31.0,original
B1.62Li2.1Mg2.19,31.0,original
B1.62Mg3.17,31.0,original
B1.62Mg2.84,31.0,original
B1.62Li0.63Mg2.51,31.0,original
Cu0.76Gd8.95O1.59Ru2.37Sr3.22,31.0,original
Co0.14La2.1O0.48Sr0.24,31.0,original
As1.47Ca4.78Fe2.3O1.45Sc10.02Ti4.15,31.0,original
Fe1.89K3.96Se1.15,31.0,original
Fe1.59K3.36Se1.15,31.0,original
Fe1.92K4.23Se1.15,31.0,original
Fe2.3K4.23Se1.15,31.0,original
Fe1.87K3.9Se1.15,31.0,original
Fe2.29K4.23Se1.15,31.0,original
Fe2.28K4.23Mn0.25Se1.15,31.0,original
As1.47Ba0.37Fe2.3K1.23,31.0,original
As1.47Eu6.81Fe2.3,31.0,original
As1.47Ba0.26Fe2.3Na1.37,31.0,original
As1.47Ca0.82Fe1.02,31.0,original
Ba0.64Bi1.47K5.32O0.2,31.0,original
Bi2.82Ca1.05Cu0.69O1.59Pb0.53Sr3.22,31.0,original
Cu0.13La2.43O0.48,31.0,original
Ba0.21Bi1.47K2.05O0.2,31.0,original
Fe1.7Rb3.68Se1.15,31.0,original
Ba0.21K2.05O0.2,31.0,original
Cu0.13Ho0.36La2.28O0.48,31.0,original
Al0.13B1.62Mg2.55,31.0,original
B1.46Mg3.17,31.0,original
Ba1.72Cu1.39O1.21Pr0.32Y0.97,31.0,original
Cu0.13La2.55O0.48,31.0,original
Ba0.23Bi1.47K1.98O0.2,31.0,original
Al0.11B1.62Li1.18Mg2.02,31.0,original
Cu0.13Nd8.34O0.48,31.0,original
Ba1.72Cu1.27O1.27Y2.04Zn0.38,31.0,original
Cu0.13La2.16O0.45Sr0.17,31.0,original
Ba1.72Cu1.39Gd6.23O1.3Pr0.21,31.0,original
Bi3.16Cu0.13La0.25O1.11Sr2.52,31.0,original
Ba1.72Cu1.39O1.21Sm6.11,31.0,original
B1.62Mg3.14,31.0,original
Fe2.06Rb4.99Se1.15,31.0,original
B1.45Mg3.17,31.0,original
Ba1.72Cu1.9O1.59Y2.04Zn0.38,31.0,original
Bi3.08Cu0.13La0.25O1.13Sr2.6,31.0,original
Bi3.08Cu0.13La0.25O1.09Sr2.6,31.0,original
Cu0.13La2.19Nd0.35O0.48,31.0,original
As0.93Ba0.64Fe2.3P1.14,31.0,original
As0.9Ba0.64Fe2.3P1.22,31.0,original
La2.22O0.48Sr0.1,31.0,original
La2.19O0.48Sr0.14,31.0,original
Ba3.88Cu3.91O3.28Pr1.53,31.0,original
As0.65Fe1.02H1.94La1.11,31.0,original
As14.67Ca10.23Ce9.52Fe12.54Pt7.15,31.0,original
As3.12Ca2.29F10.35Fe4.86Rb5.68,31.0,original
Cu0.13La2.26O0.46,31.0,original
Ba0.25Bi1.47K1.86O0.2,31.0,original
Cu0.13La2.32O0.48,31.0,original
As0.65F0.3Fe1.02La1.11,31.0,original
La2.13O0.48Sr0.21,31.0,original
Fe2.15K2.38Se1.15Tl2.32,31.0,original
Fe1.84K4.17Se1.15,31.0,original
As14.67Ca10.15Ce9.88Fe12.54Pt7.15,31.0,original
Cu0.13Nd10.33O0.48,31.0,original
As1.47Ba0.1Co0.32Fe2.17K2.59,31.0,original
Cu0.13La2.34O0.48,31.0,original
Bi3.16Ca0.68Cu0.76O1.59Pr0.21Sr3.22,31.0,original
Cu0.76La1.26O1.21Pb6.37Sr1.28,31.0,original
Ce0.36Cu0.13La2.42O0.48,31.0,original
Cu0.76Eu6.81O1.59Ru2.09Sr3.22,31.0,original
Cs2.68Fe2.17Se1.15Tl2.55,31.0,original
As0.65F0.46Fe1.02La0.83Y0.13,31.0,original
As3.12Eu6.81Fe4.73Rb5.68,31.0,original
Ba1.72Cu1.39Nd3.84O1.27Pr0.13,31.0,original
Ce2.81Cu0.76Eu10.27Nb1.1O2.15Sr3.22,31.0,original
Al2.03As1.47Ca3.54Fe2.3O0.75,31.0,original
B1.48Li0.56Mg2.88,31.0,original
As1.47Ba0.1Fe2.17K2.59Zn0.17,31.0,original
Bi3.08Cu0.13F0.93La0.25O1.03Sr2.6,31.0,original
Ba1.72Cu1.97O1.59Y2.04Zn0.12,31.0,original
As1.47Fe2.3Sr1.46,31.0,original
As1.08Ba0.64Fe2.3P0.81,31.0,original
As0.65F0.46Fe0.96Nd4.84,31.0,original
As0.61F0.93Fe1.02La1.11,31.0,original
Fe1.99K4.23Se1.15,31.0,original
As0.65Fe1.02H0.81La1.11,31.0,original
Cu0.13La2.33O0.48,30.0,original