formula,Tc
Mo0.23Re0.77,9.250
Be0.99Re0.01,9.250
Nb1,9.250
Cu0.7Nb0.29Ta0.01,9.250
V1N1,9.250
La3In0.7Ga0.3,9.250
Sr2Ca12Cu24O41,9.250
La1F0.5Bi1S2O0.5,9.250
Fe0.97Co0.03Se0.3Te0.7,9.240
Ir0.44Rh0.5Se2,9.240
Nb0.999O0.001,9.230
Nb1,9.230
Fe1Se0.8S0.2,9.230
V2Hf0.95Y0.05,9.220
Nb1,9.210
Bi1.5Pb0.5Sr1.8La0.2Cu1O5.983,9.200
Ba0.6K0.4Bi0.6Pb0.4O3,9.200
Nd0.75Pr0.25Ba2Cu3O6.85,9.200
Nb1,9.200
Be5Os1,9.200
Be22Re0.95Os0.05,9.200
Hf1V2.3,9.200
Hf1V2,9.200
Nb0.2Zr0.8,9.200
Tm1Ni1.98Co0.04B2C1,9.200
Er1Ni0.199Co0.02B2C1,9.200
Pb0.6Yb0.4Mo6Se8,9.200
Er0.9Tb0.1Ni2B2C1,9.200
B2.26Nb1,9.200
Be22Re0.99Ru0.01,9.200
In1La3,9.200
Sn0.48Eu0.6Mo6.35S8,9.200
Nb3Pt1,9.200
Ir0.455Nb0.455O0.09,9.200
La1.925Ca0.075Cu1O4,9.200
Sm0.25Fe0.75Se0.85,9.200
Sr1Fe1.85Ni0.15As2,9.200
Fe1Se0.874Sb0.046,9.200
Ba0.81K0.19Fe2As2,9.200
Mo5P1.1B1.9,9.200
Ga41Mo7V1,9.200
V2Hf0.9Y0.1,9.190
V2Hf0.9Ti0.1,9.190
Gd0.01Nb0.99,9.190
Nb1,9.180
Gd0.001Nb0.999,9.180
Ta0.4Mo0.6C1,9.180
Nb0.742Ga0.185Co0.073,9.170
Nb1,9.160
B2.34Nb1,9.160
Ga1V4.5,9.150
Hf1V2,9.150
Fe1Se0.95S0.05,9.120
Hf0.99Ta0.01V2,9.110
La1.85Sr0.15Cu0.982Al0.018O4,9.100
La1.5Nd0.4Sr0.1Cu1O4,9.100
Nd1.85Ce0.15Cu1O4.037,9.100
Y5Os4Ge10,9.100
C1Nb2,9.100
Nb0.19Ti0.74Zr0.07,9.100
Nb3Al0.3Ge0.7,9.100
B2Nb0.84,9.100
B2.1Nb1,9.100
Nb1,9.100
Mo1.8Rh0.2B1C1,9.100
Ca1Fe0.93Co0.07F1,9.100
Sr2Ca12Cu24O41,9.100
Al2C1Mo3,9.100
Fe1Se0.1Te0.9,9.100
Nb5Ir1.4Pt1.6O1,9.100
Ba1Fe2As0.4P1.6,9.100
Ba1Fe2As1.22P0.78,9.100
Nb1,9.090
La1Bi1S2F0.5O0.5,9.090
Ir0.37Rh0.57Se2,9.090
Pr1Fe0.85Co0.15As1O1,9.070
Cu0.3Zr1Te1.2,9.070
Y5Os4Ge10,9.060
N1Zr1,9.050
Nb0.36Ti0.64,9.050
Ta0.462Ti0.538,9.050
Y0.28Er0.72Rh4B4,9.050
Cu0.7In0.01Nb0.29,9.040
Y0.7Tb0.3Ni2B2C1,9.030
Nb0.992O0.008,9.030
Er0.97Tm0.3Rh4B4,9.030
Nb0.98Ta0.02,9.020
Re0.8Mo0.2,9.020
B2.2Nb1,9.010
Nb5Ir2Pt1O1,9.010
Fe1Se1S0,9.010
Y0.4Pr0.6Ba2Cu3O6.95,9.000
La1.882Ba0.118Cu1O4,9.000
Bi2Sr2Ca0.4Y0.6Cu2O8,9.000
La1.95Sr0.05Cu1O4,9.000
Pr1.9Ce0.1Cu1O3.98,9.000
La1.74Sr0.26Cu1O4,9.000
La1.07Pr0.85Sr0.08Cu1O4,9.000
La1.575Nd0.3Sr0.125Cu1O4,9.000
Sr3.5Ca11.5Cu24O41,9.000
La1.8Sr0.2Cu0.97Zn0.03O4,9.000
Ba0.47K0.53Bi0.995Pr0.005O3,9.000
K0.915Bi1.085O3,9.000
K1Bi1O3,9.000
C1Nb1,9.000
Mo0.401P0.155B0.444,9.000
Ba7.76Si46,9.000
La1.45Nd0.4Sr0.15Cu1O4,9.000
As1Bi1Pb1Sb1,9.000
As1Bi1Pb1,9.000
Be0.62Si0.38,9.000
C1Hf0.15Mo0.85,9.000
C0.46W0.54,9.000
Nb0.31Ta0.06Ti0.62,9.000
Pd0.05Ru0.05Zr0.9,9.000
Re3W1,9.000
Re0.83Ti0.17,9.000
V2Zr1,9.000
Nb0.75Si0.25,9.000
V2.898Mn0.102Ga1,9.000
C0.4Mo0.6,9.000
Rh0.1Zr0.9,9.000
C1Ta1,9.000
Nb2.58Ti0.42Al1,9.000
N0.85H2.55Na1K2C60,9.000
Na0.33V2O5,9.000
La0.9Pr0.1Pt2.1B2.4C1.2,9.000
Lu1Th3.4Ru0.6B4,9.000
Y1Rh4Si2B1,9.000
V0.709Ga0.151Al0.14,9.000
Cu2Mo6S6O2,9.000
Nb3Si1,9.000
La1Os2,9.000
Nb0.2Ta0.8C1,9.000
Mo0.1W0.9C1,9.000
Pu1Rh1Ga5,9.000
Zr1Ru1Ge1,9.000
Na1Fe1As1,9.000
C1S1,9.000
Dy0.4Tm0.6Ni2B2C1,9.000
Al2C1Mo3,9.000
Nd1Fe0.9Co0.1As1F0.11O0.89,9.000
La1.7Sr0.3Cu1O4,9.000
Sm1Fe0.94Ni0.06As1O1,9.000
Fe1Se1,9.000
Tm1Ba2Cu3O6.95,89.930
Y1Ba2Cu3O7,89.900
Y1Ba2Cu3O6.95,89.900
Y0.9Cd0.1Ba2Cu3O7,89.900
Y0.985Ca0.015Ba2Cu3O6.98,89.900
Y1Ba2Cu3O6.97,89.900
Y1Ba2Cu3O6.82,89.900
Yb0.8Lu0.2Ba2Cu3O6.94,89.900
Bi2Sr2.2Ca0.8Cu2O8,89.900
Tm1Ba2Cu3O6.96,89.880
Tm1Ba2Cu3O6.94,89.880
Y1Ba2Cu2.98Zr0.2O6.75,89.800
Bi2Sr2Ca0.8Gd0.2Cu2O8.26,89.800
Y1Ba2Cu3O6.9,89.800
Y1Ba2Cu3O6.887,89.800
Y1Ba2Cu3O7,89.800
Y1La0.2Ba1.8Cu3O7.46,89.800
Y1La0.2Ba1.8Cu3O7.77,89.800
Y1Ba2Cu3O6.98,89.800
Tm1Ba2Cu3O6.99,89.800
Sm1.05Ba1.95Cu3O6.87,89.750
Y1Ba2Cu3O7,89.700
Bi2Sr2Ca0.8Nd0.2Cu2O8.26,89.700
Lu0.85Pr0.15Ba2Cu3O7,89.700
Y1Ba2Cu3O6.93,89.700
Bi2Sr2Ca1Cu2O8,89.700
Yb0.6Lu0.4Ba2Cu3O6.92,89.700
Y1Ba2Cu3O7,89.660
Bi2Sr2Ca0.8Y0.2Cu2O8,89.600
Y1Ba2Cu3O6.9,89.600
Y1Ba1.75Sr0.25Cu3O6.928,89.600
Y1La0.2Ba1.8Cu3O7.57,89.600
La1Ba2Cu3O7,89.600
Y1Ba2Cu3O6.98,89.600
Y0.9Ca0.1Ba2Cu4O8,89.500
Y1Ba2Cu3O6.8,89.500
Y1Ba2Cu3O6.81,89.500
Y1Ba2Cu3O6.97,89.500
Y1Ba2Cu3O7.01,89.500
Y1Ba2Cu3F0.15O6.7,89.500
Y1Ba2Cu3O6.94,89.500
Y0.984Ca0.016Ba2Cu3O6.986,89.500
Bi2Sr2Ca1Cu2O8,89.500
Yb0.995Pr0.05Ba2Cu3O6.97,89.500
Yb1Ba2Cu3O6.93,89.500
Y1Ba2Cu3O6.98,89.500
Y1Ba1.86La0.14Cu3O6.98,89.400
Bi2Sr2Ca0.75Y0.25Cu2O8,89.400
Gd1Ba1.98Cu3.05O7,89.400
Y0.95K0.05Ba2Cu3O6.6,89.400
Y1Ba2Cu3O6.96,89.400
Y1Ba2Cu3O6.98,89.400
Y1Ba2Cu3O7,89.400
Y1Ba2Cu3O6.83,89.300
Y1Ba2Cu2.94Fe0.06O7,89.300
Bi2Sr2Ca1Cu2O8,89.300
Y1Ba1.95La0.05Cu3O6.98,89.300
Y1Ba2Cu3O6.85,89.300
Bi2Sr1.8Ca1Dy0.2Cu2O8.26,89.200
Y1Ba2Cu3O6.852,89.200
Y1Ba2Cu3Li0.08O7,89.200
Y1Ba2Cu2.982Zn0.018O6.9,89.200
Y1Ba2Cu3O6.75,89.100
Bi2Sr1.6Ca1.2Y0.2Cu2O8.26,89.100
Y0.8Ca0.2Ba2Cu2.8Al0.2O6.88,89.100
Y1Ba2Cu3O6.8,89.100
Yb0.95Pr0.05Ba2Cu3O6.9,89.100
Y1Ba2Cu0.6O7,89.100
Y1La0.2Ba1.8Cu3O7.36,89.100
Y1La0.2Ba1.8Cu3O7.74,89.100
Hg1Ba2Cu1O4.108,89.100
Bi2Sr2Ca1Cu2O8.291,89.100
Y1Ba2Cu3S0.06O7.23,89.000
Y1Ba2Cu3S0.12O7.28,89.000
Y1Ba2Cu2.98Fe0.02O6.93,89.000
Y1Ba2Cu3O6.55,89.000
Y1Ba2Cu3O6.95,89.000
Y1Ba1.9Sr0.1Cu3O6.89,89.000
Y1Ba2Cu3O7,89.000
Y0.9Pr0.1Ba2Cu3O6.85,89.000
Y0.93Ca0.07Ba2Cu4O8,89.000
Y1Ba2Cu3O6.85,89.000
Bi2Sr2Ca0.8La0.2Cu2O8.26,89.000
Y2Ba4Cu7O15.09,89.000
Tm1Ba2Cu3O6.95,89.000
Y1Ba2Cu3S1O6,89.000
Y0.9Ca0.1Ba2Cu4O8,89.000
Bi2Sr2Ca0.9Y0.1Cu2O8.2,89.000
Y1Ba2Cu3O6.9,89.000
Hg0.9W0.1Ba2Cu1O4.2,89.000
Hg1Ba2Cu1O4.12,89.000
Gd1Ba1.5Sr0.5Cu3O6.93,89.000
Bi2Sr2Ca1Cu2O8.25,89.000
Nd1Ba2Cu3O6.95,89.000
Ge0.3Cu4Sr2Ca2.9Y0.1O11.1,89.000
Y1Ba1.8Sr0.2Cu3O6.98,89.000
Y1Ba2Cu3O7.19,89.000
Y1Ba2Cu3O6.995,89.000
Yb0.925Pr0.075Ba2Cu3O6.97,89.000
Er2Ba4Cu7O14.92,89.000
Y1Ba1.5Sr0.5Cu3O6.96,89.000
Bi2Sr2Ca1Cu2O8,89.000
Y1Ba1.8La0.2Cu3O7.03,89.000
Y1Ba1.9Cu2.9Co0.1O7.02,89.000
Bi2Sr2Ca1Cu2O8.224,89.000
Hg1Ba2Cu1O4.058,89.000
Bi2Sr1.6Y0.1Ca1.3Cu2O8.23,89.000
Y1Ba1.9Sc0.1Cu3O6.55,88.950
Y1Ba2Cu3Li0.1O7,88.910
Y1Ba2Cu3O6.66,88.900
Bi2Sr1.8Ca1Gd0.2Cu2O8.26,88.900
Bi2Sr1.8Ca1Eu0.2Cu2O8.25,88.900
Y1Ba2Cu3O7,88.900
Y0.9Ca0.1Ba2Cu4O8,88.900
Y1Ba2Cu3O6.96,88.900
Y1Ba2Cu3O6.84,88.850
Bi2Sr2Ca0.8Nd0.2Cu2O8.26,88.800
Y0.9Ca0.1Ba2Cu4O8,88.800
Y1Ba1.8Sc0.2Cu3O6.64,88.800
Y1Ba2Cu2.95Fe0.05O6.9,88.700
Dy1Ba2Cu3O6.94,88.700
Y1Ba2Cu3O6.87,88.700
Y0.7Ca0.3Ba2Cu3O6.87,88.700
Y1Ba1.8La0.2Cu3O7.03,88.700
Bi2Sr1.6Ca1.2Lu0.2Cu2O8.26,88.600
Y0.9Ca0.1Ba2Cu3O6.9,88.600
Y1Ba1.9La0.1Cu3O7,88.600
Y1Ba2Cu3O6.9,88.550
Bi2Ca1Sr2Cu2O8,88.500
Y1Ba2Cu3O6.96,88.500
Y1Ba1.6Sr0.4Cu3O6.8,88.500
Bi2Sr2Ca1Cu2O8,88.500
Sm1.05Ba1.95Cu3O6.99,88.500
Y1Ba2Cu2.97Ni0.03O6.94,88.500
Hg1Ba2Cu1O4.066,88.500
Yb0.9Pr0.1Ba2Cu3O6.97,88.500
Y1Ba2Cu3O6.95,88.500
Y1Ba2Cu3O6.965,88.500
Y0.88Ca0.12Ba2Cu4O8,88.500
Yb1Ba2Cu3O6.95,88.400
Bi2Sr1.6Ca1.2Yb0.2Cu2O8.26,88.300
Y1Ba2Cu3O6.8,88.300
Y1Ba2Cu3O7,88.300
Y0.75Ca0.25Ba2Cu2.75Al0.25O6.86,88.200
Y0.95Ca0.05Ba2Cu3O6.94,88.200
Sm1Ba2Cu3O7,88.100
Y1Ba2Cu3O6.96,88.100
Sm1Ba2Cu3O6.927,88.100
Y0.9Pr0.1Ba2Cu3O6.95,88.100
Y0.9Pr0.1Ba2Cu3O6.97,88.100
Y1Ba2Cu3O6.78,88.100
Y1La0.2Ba1.8Cu3O7.64,88.100
Y1Ba2Cu2.95Al0.05O7,88.000
Y1Ba2Cu3O6.9,88.000
Nd1Ba2Cu3O7,88.000
Bi2Ca1Sr2Cu2O8,88.000
Bi2Sr2Ca1Cu2O8.19,88.000
Bi2Sr2Ca1Cu2O8,88.000
Y1Ba2Cu3O7,88.000
Eu1Ba2Cu3O6.9,88.000
Y2Ba4Cu7O14.98,88.000
Tl1.75Cd0.25Ba2Cu1O6,88.000
Bi2Sr1.6Ca1.2Dy0.2Cu2O8.26,88.000
Pr1Tl2Sr2Ca4Cu5O2,88.000
Yb0.9Pr0.1Ba2Cu3O6.92,88.000
Er1Ba2Cu3O6.935,88.000
Tl2Ba2Cu1O6,88.000
Y0.95Ca0.05Ba2Cu3O6.79,88.000
Bi2Sr2Ca1Cu2O8.24,88.000
Tm2Ba4Cu7O14.732,88.000
Y0.95Ca0.05Ba2Cu2.95Co0.05O6.96,88.000
Y0.9Ca0.1Ba2Cu2.9Co0.1O6.95,88.000
Y1Ba2Cu3O6.96,88.000
Tl1Sr1.5Pr0.5Ca1Cu2O7,88.000
Tl1Sr1.5Nd0.5Ca1Cu2O7,88.000
Tl1Sr1.5Eu0.5Ca1Cu2O7,88.000
Y1Ba2Cu3H0.08O7,88.000
Y1Ba2Cu2.95Ga0.05O6.69,88.000
Y1Ba2Cu3O6.828,88.000
Dy1Ba2Cu2.98Fe0.02O6.88,88.000
Hg1Ba2Cu1O4.16,88.000
Hg1Ba2Cu1O4.28,88.000
Yb1Ba2Cu3O6.97,88.000
Hg1Ba2Cu1F1O4,88.000
Y0.95Pr0.05Ba2Cu3O6.965,88.000
Y1Ba2Cu3O6.95,88.000
Y1Ba2Cu2.991Zn0.009O6.95,88.000
Er1Ba2Cu2.97Fe0.03O6.94,88.000
Y1Re0.05Ba2Cu2.95O6.94,88.000
Bi2Sr2Ca0.75Pr0.25Cu2O8,88.000
Y1Ba2Cu2.993Zn0.007O6.92,88.000
Sr1.68Ba0.32Cu1O3.4,88.000
Y1Ba2Cu2.94Ga0.06O7,87.990
Bi2Sr2Ca0.8La0.2Cu2O8.26,87.900
Tm0.9Pr0.1Ba2Cu3O6.95,87.900
Y1La0.2Ba1.8Cu3O7.62,87.900
Y1Ba2Cu3O6.85,87.900
Yb1Ba2Cu3O7,87.900
Sm1Ba2Cu3O6.773,87.800
Tl2Ba2Cu1O6.12,87.800
Bi2Sr1.8Ca1La0.2Cu2O8.27,87.800
Bi2Sr2Ca0.8Y0.2Cu2O8.2,87.800
Y1Ba2Cu3O6.99,87.800
Y0.85Ca0.15Ba2Cu4O8,87.800
Y1Ba2Cu3O7,87.800
Bi2Sr1.8Ca1Nd0.2Cu2O8.26,87.700
Y1Ba2Cu2.82Fe0.18O6.895,87.700
Y1Ba2Cu3O6.82,87.700
Y1Ba1.5Sr0.5Cu3O6.938,87.600
Nd1.1Ba1.9Cu3O6.96,87.600
Hg0.76Tl0.76Ba1Cu1O4.5,87.500
Y1Ba2Cu3O7,87.500
Y1Ba2Cu2.94Fe0.06O6.89,87.500
Y1Ba2Cu2.8Cr0.2O7,87.500
Bi2Sr2Ca1Cu2O8.293,87.500
Y0.95Pr0.05Ba2Cu3O6.96,87.500
Y1Ba2Cu2.98Ni0.02O6.95,87.500
Y1Ba2Cu3O6.858,87.400
Y1Ba2Cu3O6.81,87.300
Y0.95Ca0.05Ba2Cu4O8,87.200
Hg0.9Re0.1Ba2Cu1O4.33,87.200
Tm1Ba2Cu3O6.86,87.200
Y0.981Ba1.994Ca0.025Cu4O8,87.100
Bi2Sr1.6Ca1.2Gd0.2Cu2O8.26,87.100
Bi2Sr1.6Ca1.2Eu0.2Cu2O8.26,87.100
Dy1Ba1.97Cu3.06O7,87.100
Bi2Sr2Ca1Cu2O8.19,87.100
Y1Ba2Cu3O6.82,87.050
Yb1Ba2Cu3O6.71,87.000
Bi2Sr2Ca1Cu2O1,87.000
Sm1Ba2Cu3O6.9,87.000
Tl2Ba2Ca1Cu2O8,87.000
Tl2Ba2Cu1O5.876,87.000
Ho0.9Ca0.1Ba2Cu4O8,87.000
Ho0.85Ca0.15Ba2Cu4O8,87.000
Ho0.8Ca0.2Ba2Cu4O8,87.000
Ho0.7Ca0.3Ba2Cu4O8,87.000
Y1Ba2Cu2.94Al0.06O7,87.000
Y1Ba2Cu3O7,87.000
Bi1.8Pb0.2Sr2Ca0.8Nd0.2Cu2O8.21,87.000
Bi1.6Pb0.4Sr1.8Ca1Nd0.2Cu2O8.11,87.000
Bi1.6Pb0.4Sr2Ca0.8Nd0.2Cu2O8.16,87.000
Bi2Sr2Ca1Cu2O8.15,87.000
Y2Ba4Cu7O15.03,87.000
Bi2Sr2Ca1Cu2O8,87.000
Yb0.9Ca0.1Ba1.8Sr0.2Cu4O8,87.000
Y0.3Cd0.7Ba2Cu3O7,87.000
Sm1Ba2Cu3O7.01,87.000
Y0.88Ca0.12Ba2Cu2.88Co0.12O6.78,87.000
Y0.95Ca0.05Ba2Cu4O8,87.000
Hg1Ba2Cu1O4.043,87.000
Y0.98Ca0.02Ba2Cu4O8,87.000
Y0.9Ca0.1Ba1.8La0.2Cu3O6.97,87.000
Y0.8Pr0.05Ca0.15Ba2Cu3O6.83,87.000
Tl1Sr2Ca0.7Y0.3Cu2O6.84,87.000
Tl1Sr2Ca0.6Y0.4Cu2O6.86,87.000
Tl1Sr2Ca0.1Y0.9Cu2O6.97,87.000
Hg1Ba2Cu1O4.28,87.000
Y1Ba2Cu2.9Fe0.1O7.293,87.000
Lu1Ba2Cu3O7,87.000
Y1Ba1.9La0.1Cu3O6.92,87.000
Bi2Sr2Ca1Cu2O8.27,87.000
Bi2Sr2Ca0.9Er0.1Cu2O8,87.000
Ba2Ca1Cu2F1.8O4.2,87.000
Y0.8Sc0.2Ba2Cu4O8,87.000
Y1Ba2Cu3O6.791,86.900
Gd0.95Hf0.05Ba2Cu3O6.91,86.900
Lu0.8Pr0.2Ba2Cu3O7,86.800
Gd1Ba1.95Pr0.05Cu3O7.03,86.800
Y1Ba2Cu3O6.82,86.700
Y0.97Ca0.03Ba2Cu3O6.97,86.700
Hg1Ba2Cu1O4.27,86.700
Y1Ba2Cu3O7,86.700
Bi2Sr2Ca1Cu2I0.03O8.21,86.600
Y1Cu2.99Zn0.01O7,86.600
Y1Ba2Cu3O7,86.600
Bi4Ca3Sr3Cu4O16,86.500
Bi2Sr2Ca1Cu2O8.11,86.500
Y1Ba2Cu3H0.6O6.91,86.500
Yb0.85Pr0.15Ba2Cu3O6.97,86.500
Y1Ba2Cu2.99Zn0.01O7,86.500
Tl2Ba2Cu1O6,86.500
Bi2Sr2Ca1Cu2O8.11,86.400
Bi2Sr2Ca1Cu2O8,86.400
Y1Ba2Cu3O7,86.400
Y1Ba2Cu2.94Ni0.06O6.9,86.300
Dy1Ba1.5Sr0.5Cu3O6.9,86.300
Y0.925Ca0.075Ba2Cu3O6.93,86.300
Gd0.7Ca0.15Mo0.15Ba2Cu3O6.716,86.300
Y1Ba1.5Sr0.5Cu3O6.9,86.300
Y1Ba1.5Sr0.5Cu3O6.91,86.300
Gd0.65Ca0.2Hf0.15Ba2Cu3O6.96,86.300
Y1Ba2Cu2.92Fe0.08O7,86.200
Y1Ba2Cu3O6.77,86.200
Y1Ba2Cu2.955Ni0.045O6.95,86.200
Bi4Sr3Ca1.5Y1.5Cu4O16,86.100
Tl1Ba2Ca0.9Y0.1Cu2O7,86.100
Bi2Sr2Ca1Cu2O8,86.100
Nd0.95Ca0.025Pr0.025Ba2Cu3O6.95,86.100
Y1Ba1.99Cu2.847Ag0.153O6.7,86.000
Bi2Sr2Ca0.7Y0.3Cu2O8.3,86.000
Y1Ba1.4Sr0.6Cu3O6.8,86.000
Y1Ba1.2Sr0.8Cu3O6.8,86.000
Y1Ba2Cu4O7.96,86.000
Y1Ba2Cu3O7,86.000
Y1Ba2Cu2.94Al0.06O6,86.000
Y0.9Pr0.1Ba2Cu3O6.95,86.000
Bi2Sr1.6Ca1.2Nd0.2Cu2O8.26,86.000
Bi2Sr1.6Ca1.2La0.2Cu2O8.27,86.000
Bi1.8Pb0.2Sr1.8Ca1Nd0.2Cu2O8.2,86.000
Bi2Sr1.6Li0.4Ca1Cu2O7.87,86.000
Bi2Sr2Ca0.8Y0.2Cu2O8.34,86.000
Tl0.76Ba1Cu1O4.5,86.000
Yb0.9Ca0.1Ba1.6Sr0.4Cu4O8,86.000
Yb1Ca0.2Ba1.6Sr0.4Cu4O8,86.000
Y1Ba2.01Cu3.11O7,86.000
Y0.76Ca0.24Ba2Cu2.85Co0.15O6.8,86.000
Y0.85Ca0.15Ba2Cu2.85Co0.15O6.83,86.000
Y0.8Ca0.2Ba2Cu2.85Co0.15O6.84,86.000
Gd1Ba1Sr1Cu3O6.94,86.000
Tl2Ba2Cu1O6,86.000
Er0.95Ca0.05Ba2Cu3O6.935,86.000
Y0.9Ca0.1Ba1.9La0.1Cu3O6.95,86.000
Er0.95Hf0.05Ba2Cu3O6.938,86.000
Sr2Nd0.2Ca0.8Cu2F1O5,86.000
Bi2Sr2Ca1Cu2O8.23,86.000
Bi2Sr2Ca1Cu2O8.26,86.000
Y1Ba2Cu3Li0.3O7,86.000
Bi2Sr2Ca1Cu2O8.248,86.000
Y0.85Ca0.15Ba2Cu2.85Co0.15O6.97,86.000
Tl1Sr2Ca2Cu3O9.4,86.000
Y1Ba1.5Sr0.5Cu3O6.98,86.000
Y1Ba1Sr1Cu2.9Mo0.1O7.16,86.000
Tl1Sr1.5Sm0.5Ca1Cu2O7,86.000
Y1Ba2Cu3H0.21O7,86.000
Er1Ba2Cu2.9Ga0.1O6.78,86.000
Y1Ba2Cu3O6.95,86.000
Tl1Bi1Sr2Ca1Cu2O7,86.000
Bi2Sr2Ca1Cu2O8.16,86.000
Bi2Sr2Ca1Cu2O8,86.000
Lu1Ba2Cu3O7,86.000
Y1Ba1.95La0.05Cu3O6.89,86.000
Y1Ba2Cu2.98Ni0.02O6.94,86.000
Dy1Ba2Cu3O6.879,86.000
Bi2Sr2Ca0.9Pr0.1Cu2O8,86.000
Y0.5La0.5Ba2Cu3O7.01,86.000
Y1Ba2Cu2.985Zn0.015O6.95,86.000
Nd1Ba1.6Sr0.4Cu3O6.94,86.000
Tl0.7K0.3Sr2Ca0.8Cr0.2Cu2O7,86.000
Y1Ba2Cu2.94Ni0.06O7,85.900
Y0.9Pr0.1Ba2Cu3O6.98,85.900
Y1Ba1.5Sr0.5Cu3O6.95,85.900
Bi4Sr3Ca1.4Y1.6Cu4O16,85.800
Sr2Nd0.1Ca0.9Cu2F1O5,85.800
Y1Ba2Cu3H0.69O6.91,85.700
Y0.8Ca0.2Ba2Cu4O8,85.600
Y0.9Ca0.1Ba1.6Sr0.4Cu4O7.8,85.500
Y1Ba2Cu3O7,85.500
Y1Ba1.25Sr0.75Cu3O6.928,85.500
Y0.95Pr0.05Ba2Cu3O6.85,85.500
Bi2Sr2Ca1Cu2O8.17,85.500
Y1Ba2Cu3O6.78,85.400
Y1Ba2Cu3O6.7,85.400
Y1Ba1.9Ca0.1Cu4O8,85.400
Y0.9Ca0.1Ba2Cu3O6.87,85.400
Y0.95Ca0.05Ba2Cu4O8,85.400
Y1Ba2Cu3O6.76,85.230
Dy1Ba1.4Sr0.6Cu3O6.91,85.200
Bi2Sr2Ca1Cu2O8.2,85.200
Nd0.97Pr0.03Ba2Cu3O7,85.100
Bi2Sr2Ca1Cu2O8,85.100
Yb1Ba2Cu2.982Zn0.018O6.9,85.100
Y1Ba2Cu2.8Al0.2O6.91,85.000
Eu1Ba2Cu3S1O6,85.000
Y1Ba2Cu2.94Ni0.06O7.01,85.000
Y1Ba2Cu3O6.96,85.000
Er1Ba2Cu3O6.67,85.000
Y1Ba2Cu2.9Al0.1O7.1,85.000
Y1Ba1.9Ca0.1Cu3O6.84,85.000
Bi2Sr2Ca1Cu2O8,85.000
Y1Ba2Cu3O6.72,85.000
Y1Ba2Cu3O7,85.000
Tl0.5Pb0.5Sr2Ca1Cu2O7,85.000
Y1Ba2Cu2.94Ni0.06O6.97,85.000
Tl2Ba2Cu1O6,85.000
Bi1Pb1Sr2Y0.5Ca0.5Cu2O8,85.000
Bi2Sr2Ca1Cu2O8.196,85.000
Y1Ba2Cu2.94Fe0.06O6.85,85.000
Bi1.6Pb0.4Sr2Ca0.6Nd0.4Cu2O8.26,85.000
Bi8Sr6Ca6Cu9O33.912,85.000
Yb0.9Ca0.1Ba1.4Sr0.6Cu4O8,85.000
Yb1Ca0.4Ba1.6Sr0.4Cu4O8,85.000
Bi1Sr1Ca1Cu1O1,85.000
Y0.76Ca0.24Ba2Cu2.76Co0.24O6.84,85.000
Lu0.9Pr0.1Ba2Cu3O2,85.000
Hg0.8Bi0.2Ba2Cu1O4.2,85.000
Bi2Sr2Ca1Cu2O8.16,85.000
Tl1Sr2Ca0.8Y0.2Cu2O6.82,85.000
Hg1Ba2Cu1O4.08,85.000
B1Sr2Ca4Cu5O13,85.000
Y1Ba2Cu3O6.82,85.000
Y1Ba1Sr1Cu2.95Mo0.05O7.07,85.000
Bi2Sr2Ca0.9Y0.1Cu2O8.23,85.000
Y1Ba2Cu2.94Fe0.06O6.929,85.000
Y1Ba2Cu2.84Fe0.16O7.303,85.000
Y1Ba2Cu2.98Zn0.02O7,85.000
Lu1Ba2Cu3O7,85.000
Y0.9Pr0.1Ba2Cu3O6.965,85.000
Y1Ba2Cu2.95Ni0.05O6.94,85.000
Y0.6La0.4Ba2Cu3O6.92,85.000
Y0.4La0.6Ba2Cu3O6.99,85.000
Gd1.05Ba1.95Cu3O6.94,85.000
Y1Ba2Cu3O6.937,84.800
Y1Ba2Cu3O6.838,84.800
Tm0.95Ca0.05Ba2Cu4O8,84.800
Y0.8Ca0.2Ba2Cu3O6.5,84.800
Dy1Ba1.2Sr0.8Cu3O6.9,84.700
Er0.6Ca0.25Hf0.15Ba2Cu3O7.02,84.700
Bi2Sr2Ca1Cu2O8,84.700
Bi2.2Sr1.72La0.08Ca1Cu2O8,84.700
Y0.85Ca0.05Pr0.1Ba2Cu3O6.95,84.600
Hg1.4Tl0.6Ba2Y0.6Ca0.4Cu2O7.78,84.600
Bi4Ca3Sr3Cu4O16,84.500
Tl1Ba2Ca0.7Gd0.3Cu2O7,84.500
Tl0.5Pb0.5Ca1Sr2Cu2O7,84.500
Y1Ba2Cu1O8,84.500
Er0.82Ca0.18Ba2Cu2.82Co0.18O6.71,84.500
Y1Cu2.98Zn0.02O7,84.500
Y1Ba1.3Sr0.7Cu3O6.98,84.500
Nd0.9Ca0.1Ba2Cu3O6.63,84.500
Eu1Ba2Cu3O7,84.400
Y1Ba2Cu3O6.85,84.400
Bi4Sr4Ca1.5Tm0.5Cu4O16.5,84.300
Dy1Ba1.8Sr0.2Cu3O6.89,84.200
Y0.9Ca0.1Ba2Cu3O6.91,84.200
Gd0.9Hf0.1Ba2Cu3O6.88,84.200
Y0.8Ca0.2Ba2Cu3O6.78,84.200
Bi1.7Pb0.3Sr2Ca0.92Nd0.08Cu2O8.16,84.110
Y0.9Pr0.1Ba2Cu3O7,84.100
Y0.9Ca0.1Ba2Cu3O6.8,84.100
Y0.8Ca0.2Ba2Cu3O6.8,84.100
Gd0.65Ca0.2Mo0.15Ba2Cu3O6.818,84.100
Bi2.2Sr1.72La0.08Ca1Cu2O8,84.100
Bi2Sr1.3Ca0.7Cu1O6.15,84.000
Bi2Sr2Ca1Cu2O8,84.000
Y0.95Ca0.05Ba2Cu4O8,84.000
Yb0.9Ca0.1Ba1.2Sr0.8Cu4O8,84.000
Y1Ba2Cu3O6.8,84.000
Bi1Sr1Ca1Cu1O1,84.000
Y0.9Ca0.1Ba2Cu2.85Co0.15O6.91,84.000
Y0.7Ca0.3Ba2Cu2.7Co0.3O6.93,84.000
Gd0.922Pr0.078Ba2Cu3O7,84.000
Gd1Ba2Cu3H0.12O6.89,84.000
Y0.8Ca0.2Ba1.8La0.2Cu3O6.94,84.000
Er0.76Ca0.24Ba2Cu2.76Co0.24O6.92,84.000
Bi2Sr2Ca1Cu2O8.27,84.000
Bi1.6Pb0.4Sr2Cu3Ca2O10.11,84.000
Eu1Ba1Sr1Cu3O6.95,84.000
Bi2Sr2Ca1Cu2O8.234,84.000
Nd0.6Ca0.4Ba0.6La0.4Cu3O6.83,84.000
Cu3P0.5Sr2Ca1.9Y0.1O9.3,84.000
Cu3P0.5Sr2Ca1.9Y0.1O9.4,84.000
Tl1Sr1.5Tm0.5Ca1Cu2O7,84.000
Tl1Sr1.5Yb0.5Ca1Cu2O7,84.000
Y1Ba2Cu2.993Zn0.007O7,84.000
Hg1.4Tl0.6Ba2Y0.5Ca0.5Cu2O7.74,84.000
Sm1Ba2Cu2.98Fe0.02O6.76,84.000
Y1Ba2Cu3O6.86,84.000
Y0.8La0.2Ba2Cu3O6.9,84.000
Tl0.7Rb0.3Sr2Ca0.8Cr0.2Cu2O7,84.000
Bi4Sr4Ca1.9Tm0.1Cu4O16.28,83.900
Bi4Sr4Ca1.8Tm0.2Cu4O16.38,83.900
Bi2Sr2Ca1Cu2I0.1O8.21,83.900
Y0.85Pr0.05Ca0.1Ba2Cu4O8,83.800
Gd0.7Ca0.15Hf0.15Ba2Cu3O6.93,83.800
Y0.925Ca0.075Ba2Cu4O8,83.800
Y1Ba2Cu3Li0.5O7,83.790
Y1Ba2Cu2.91Ga0.09O7,83.710
Bi2Sr2Ca1Cu2O8.231,83.700
Gd0.6Ca0.25Mo0.15Ba2Cu3O6.761,83.700
Y1Ba2Cu3O6.75,83.650
Sm1Ba2Cu3O6.813,83.600
Y1Ba1Sr1Cu3O6.98,83.600
Tm1Ba2Cu3O6.87,83.600
Y1Ba1Sr1Cu3O6.8,83.500
Y1Ba2Cu2.94Ni0.06O7,83.500
Y0.9Ca0.1Ba2Cu4O8,83.500
Y0.93Ca0.07Ba2Cu4O8,83.500
Y1Ba2Cu2.94Ni0.06O6.94,83.500
Nd1Ba1.9La0.1O6.86,83.500
Y1Ba1Sr1Cu3O6.96,83.500
Y1Ba2Cu2.97Zn0.03O7,83.500
Y0.94Ca0.06Ba2Cu3O6.97,83.400
Y1Ba2Cu2.095Al0.095O6.81,83.300
Y1Ba1.926Ca0.074Cu4O8,83.300
Y1Ba1Sr1Cu3O6.947,83.300
Tm0.93Ca0.07Ba2Cu4O8,83.300
Y0.9Ca0.1Ba2Cu3O6.93,83.300
Y1Ba2Cu3O6.98,83.300
Eu1Ba1.93Cu2.92O7,83.200
Y1Ba2Cu2.985Zn0.015O7,83.200
Er0.95Ca0.05Ba2Cu4O8,83.200
Y1Ba2Cu3O6.85,83.200
Y1Ba2Cu3O6.8,83.200
Bi2Sr2Ca0.95Pr0.05Cu2O8,83.150
Y1Ba2Cu3O6.8,83.100
Bi2.2Sr1.72La0.08Ca1Cu2O8,83.100
Y1Ba2Cu3O6.7,83.000
Y1Ba2Cu3O6.8,83.000
Y1Ba2Cu2.9Ni0.1O7,83.000
Bi4Sr3Ca2.8Tm0.2Cu4O16.41,83.000
Bi2Sr1.5Ca1.5Cu2O8.19,83.000
Y1Ba2Cu3O7,83.000
Y0.83Ca0.02Pr0.15Ba2Cu3O6.95,83.000
Y1Ba2Cu4O8,83.000
Bi2Sr2Ca1Cu2O8,83.000
Bi1Pb1Sr2Y0.6Ca0.4Cu2O8,83.000
Bi4Sr3Ca3Cu4O16.25,83.000
Dy1Ba1Sr1Cu3O6.93,83.000
Y0.95Ca0.05Ba2Cu2.85Co0.15O6.82,83.000
Dy1Ba1Sr1Cu3O6.94,83.000
Sm1.15Ba1.85Cu3O7,83.000
Y0.6Ca0.4Ba1.4La0.6Cu3O7.07,83.000
Nd1Ba1.5Sr0.5Cu3O6.91,83.000
Y0.85Ca0.15Ba2Cu3O6.65,83.000
Sr2Ca1Cu2.8O7.5,83.000
Y0.899Ca0.101Ba2Cu3O6.943,83.000
Y0.9Pr0.1Ba2Cu3O6.96,83.000
Dy1Ba2Cu2.95Ga0.05O6.69,83.000
Sm1Ba2Cu2.96Ni0.04O6.88,83.000
Dy1Ba2Cu2.98Ni0.02O6.72,83.000
Hg1Ba2Cu1O4.19,83.000
Gd1Ba1Sr1Cu3O6.93,83.000
Er1Ba2Cu2.91Fe0.09O6.96,83.000
Eu0.9Pr0.1Ba2Cu3O6.78,83.000
Hg1Ba2Cu0.97Zn0.03O4.081,83.000
Bi2.1Sr1.8Ca1Cu1.982Zn0.018O8,83.000
Y0.7La0.3Ba2Cu3O6.92,83.000
Y1Ba2Cu2.978Zn0.022O6.93,83.000
Y1Ba2Cu4O8,82.900
Er0.85Pr0.15Ba2Cu3O7,82.900
Y0.8Ca0.2Ba2Cu3O6.9,82.900
Er0.9Hf0.1Ba2Cu3O6.862,82.900
Y0.75Ca0.25Ba2Cu4O8,82.900
Y1Ba2Cu2.975Zn0.025O6.93,82.800
Y0.8Ca0.05Pr0.15Ba2Cu3O6.95,82.700
Gd0.75Ca0.1Hf0.15Ba2Cu3O6.89,82.700
Y1Ba2Cu3O6.78,82.600
Y0.9Ca0.1Ba2Cu3O6.72,82.600
Y1Ba2Cu3O6.74,82.600
Y1Ba2Cu4O8,82.500
Nd1Ba2Cu3O7.04,82.500
Er0.9Ca0.1Ba2Cu3O6.93,82.500
Bi1.7Pb0.3Sr2Ca0.99Nd0.01Cu2O8.03,82.500
Y1Ba2Cu3O6.795,82.500
Y0.8Ca0.2Ba2Cu2.8Co0.2O6.98,82.500
Y0.75Ca0.25Ba2Cu2.75Co0.25O7,82.500
Bi2Sr2Ca1Cu2O8,82.500
Y0.5Ca0.5Ba1.5La0.5Cu3O6.96,82.500
Bi2.2Sr1.72La0.08Ca1Cu2O8,82.500
Bi4Sr4Ca2Cu4O16.25,82.400
Yb0.7Ca0.3Ba1.6Sr0.4Cu3O6.56,82.400
Gd0.95Mo0.05Ba2Cu3O6.948,82.400
Bi2Sr2Ca1Cu2O8,82.400
Y0.6Ca0.4Ba1.5La0.5Cu3O7.01,82.400
Y0.75Ca0.25Ba2Cu2.75Co0.25O6.98,82.400
Eu1Ba2Cu3O7,82.200
Y0.95Ca0.05Ba2Cu4O8,82.200
Y0.8Ca0.2Ba2Cu2.75Co0.25O7.01,82.200
Y1Ba2Cu2.97Fe0.03O7,82.000
Y1Ba2Cu2.89Al0.11O7,82.000
Y1Ba2Cu3O6.9,82.000
Tl2Ba2Cu1O5.912,82.000
Y0.95Ca0.05Ba1.6Sr0.4Cu4O7.8,82.000
Y1Ba0.8Sr1.2Cu3O6.8,82.000
Y1Ba2Cu3O6.76,82.000
Y2Ba4Cu7O14.92,82.000
Bi2Sr2Ca1Cu2O8,82.000
Y0.76Ca0.24Ba2Cu2.94Co0.06O6.81,82.000
Y0.64Ca0.36Ba2Cu2.64Co0.36O6.87,82.000
Y0.975Ca0.025Ba2Cu4O8,82.000
Tl0.5Pb0.5Sr2Ca1Cu2O7,82.000
Yb1Ba1.8Sr0.2Cu4O8,82.000
Hg1Ba2Cu1O4.117,82.000
Y0.95Ca0.05Ba2Cu2.95Ni0.05O6.83,82.000
Gd1Ba1Sr1Cu3O7,82.000
Y1Ba2Cu2.97Ti0.03O6.92,82.000
Gd1Ba2Cu3H0.43O6.89,82.000
Y1Ba1.8La0.2Cu3O6.96,82.000
Y0.9Ca0.1Ba1.7La0.3Cu3O7.04,82.000
Y0.7Ca0.3Ba1.7La0.3Cu3O6.92,82.000
Y0.7Ca0.3Ba1.4La0.6Cu3O7.12,82.000
Y0.6Ca0.4Ba1.6La0.4Cu3O6.95,82.000
Y0.6Ca0.4Ba1.3La0.7Cu3O7.12,82.000
Y0.5Ca0.5Ba1.5La0.5Cu3O6.94,82.000
Y0.5Ca0.5Ba1.2La0.8Cu3O7.12,82.000
Y0.4Cu3Ba1.3La0.7O7,82.000
Y0.4Ca0.6Ba1.2La0.8Cu3O7.07,82.000
Y0.4Ca0.6Ba1.1La0.9Cu3O7.12,82.000
La1Ba1.87Ca0.13Cu3O6.923,82.000
Nd1Ba1.8Sr0.2Cu3O6.927,82.000
Nd0.9Ba1.7Sr0.4Cu3O6.666,82.000
Y0.9Pr0.1Ba2Cu3O6.82,82.000
Y0.9Ca0.1Ba2Cu3O6.67,82.000
Bi2Sr2Ca1Cu2O8.22,82.000
Ba1.6Sr0.4Yb1Cu3O6.96,82.000
Y1Ca1Ba4Cu5N0.3C0.7O14,82.000
Y1Ba2Cu3O6.88,82.000
Cu3P0.5Sr2Ca2O9.25,82.000
Y0.7Ca0.3Ba2Cu2.7Co0.3O7.02,82.000
Sr0.6Ca0.333Cu1O2.15,82.000
Y1Ba2Cu4O8,82.000
Tl1Sr1.5Lu0.5Ca1Cu2O7,82.000
Y1Ba2Cu4O7.95,82.000
Y1Ba1.8Sr0.2Cu4O7.95,82.000
Y1Ba1.6Sr0.4Cu4O7.95,82.000
Y1Ba1.4Sr0.6Cu4O7.95,82.000
Er1Ba2Cu2.85Ga0.15O6.69,82.000
Y1Ba2Cu3O6.78,82.000
Y0.9Ca0.1Ba1.9La0.1Cu3O6.96,82.000
Y1Ba2Cu2.68Fe0.32O7.343,82.000
Y1Ba2Cu2.6Fe0.4O7.401,82.000
Dy1Ba2Cu2.96Fe0.04O6.89,82.000
Dy1Ba2Cu2.96Ni0.04O6.73,82.000
Yb0.8Pr0.2Ba2Cu3O6.97,82.000
Y1Ba1Sr1Cu3O6.98,82.000
Y1Ba2Cu3O7,82.000
Gd1Ba1.5Sr0.5Cu3O6.93,82.000
Bi1.6Sr0.4Yb1Cu3O6.999,82.000
Y1Ba2Cu2.97Zn0.03O6.93,82.000