formula,Tc,type
Nb1.1Rb2.8S2.07,2.0,original
La1.11Os12.44P22.25,2.0,original
Ir3.36Mo3.59,2.0,original
Cu1.39Sb1.15,2.0,original
Rh1.53,2.0,original
Ti4.08,2.0,original
Rh5.35Sn4.31Tm15.5,2.0,original
Gd8.95Mo7.34S8.78,2.0,original
Mo7.34S8.78Tb16.65,2.0,original
P22.25Pr0.75Ru11.04,2.0,original
Ti4.17,2.0,original
Y2.04,2.0,original
Cd11.81Mo7.34S8.78,2.0,original
Lu13.45Os18.71Sn16.67,2.0,original
Ti2.01Zr1.79,2.0,original
Mg3.17Ni7.28,2.0,original
Al0.98,2.0,original
Bi1.63Se1.82Ta5.24,2.0,original
Bi1.63Se3.05Ta10.6,2.0,original
Se1.15Ti4.19,2.0,original
Fe2.3K0.96S2.07,2.0,original
Te7.36Zr3.7,2.0,original
Sn0.71Te2.37,2.0,original
Ge10.78Ru11.04Y6.83,2.0,original
Ir5.11Te19.84,2.0,original
Ce5.81Co2.59In8.92Ru0.97,2.0,original
C0.24La1.11,2.0,original
Au7.67Te4.87,2.0,original
As0.65Rh0.33Ru1.95,2.0,original
As0.65Rh0.6Ru1.53,2.0,original
C0.24La1.04Ni2.3Sm0.23,2.0,original
C0.24La1.07Ni2.3,2.0,original
B1.62Ru8.24Th3.56,2.0,original
Au6.5Ga2.26Pd0.2,2.0,original
Os0.26Re1.26,2.0,original
Os0.25Re1.26,2.0,original
Au0.3Zr3.51,2.0,original
Sn0.69Te2.37,2.0,original
Pb3.13Pd1.94Tl4.41,2.0,original
Nb3.63Os6.17,2.0,original
Fe0.26Ni1.3Zr7.55,2.0,original
B3.4Dy10.45Ir1.28Rh5.71,2.0,original
Ce5.81Co4.41In13.72Zn0.68,2.0,original
Pd1.94Te4.87,2.0,original
Ce5.51Co4.41In8.92Sm0.23,2.0,original
Bi3.16Eu20.66F20.82S4.08,2.0,original
Au7.12Ga2.26,2.0,original
Pd2.04Te4.87,2.0,original
Cd11.81Hg7.24,2.0,original
Ce5.81Co2.14In8.92Ru1.25,2.0,original
Ce1.01Ge9.94Pr0.59Pt9.58,2.0,original
Pt0.39V0.56,2.0,original
Re4.4Si1.59Y4.44,2.0,original
Cu0.13Ir2.67Pt0.83Se2.38,2.0,original
Sn0.67Te2.37,2.0,original
Ce5.81Co4.23In8.92,2.0,original
Au7.67V2.32,2.0,original
Ir1.62Ta5.24Te9.86,2.0,original
Sn0.69Te2.4,2.0,original
Al0.27Ge0.46,2.0,original
Au7.28Ga2.26Pd0.92,2.0,original
Pb9.62Sr1.28,2.0,original
La1.11Pb4.75Tl6.69,2.0,original
Al0.98Ge1.57,2.0,original
Cu0.13S0.95Se0.54,2.0,original
B3.4Ir6.85Tm7.72,2.0,original
Hf9.88Pd0.51Rh1.15Si0.25,2.0,original
Se1.15Ta0.15Ti3.97,2.0,original
Ca1.05K5.32Li0.63Nb3.63O2.15,2.0,original
Ga1.1Pt2.29,2.0,original
Sb2.38Zr11.4,2.0,original
Ce3.41Co4.41In8.92Nd1.84,2.0,original
Bi1.47Hf2.9La0.68S2.07,2.0,original
Bi1.47Hf3.9La0.54S2.07,2.0,original
K2.05O0.2W5.25,2.0,original
Ba0.64Si0.38,2.0,original
Ce5.81Co3.82In8.92Rh0.11,2.0,original
Bi3.16Pd1.94,2.0,original
Hf9.88Rh1.7,2.0,original
La0.99Nd0.3Pt2.29Si0.25,2.0,original
Ir3.36S4.3Zn1.2,2.0,original
V0.64,2.0,original
Ti4.1,2.0,original
Ag0.24Sn0.69Te2.37,2.0,original
Nd0.35Os12.44Pr0.67Sb14.68,2.0,original
As1.47Fe2.3Rb5.68,2.0,original
Ce5.51Co4.41In8.92Yb0.42,2.0,original
Ce5.81Co4.41Hg0.26In8.83,2.0,original
La0.35Ru5.45Th1.85,2.0,original
Re1.43,2.0,original
Os3.03Si0.25Zr3.7,2.0,original
La1.06,2.0,original
H2.67Pd1.91,2.0,original
Dy12.55Mo7.34S8.78,2.0,original
Au1.78Te1.78,2.0,original
Ir0.53V0.47,2.0,original
Au1.16Te1.97,2.0,original
Pb3.05Te2.37,2.0,original
Ge8.69Pr0.75Pt9.58Sb1.76,2.0,original
BiF2.5La1.11S2.07,2.0,original
Os12.44Pr0.67Sb14.68,2.0,original
K2.59Nb1.1S2.07,2.0,original
Al0.56Mg1.2,2.0,original
As0.65Pd3.98,2.0,original
Be1.92Nb1.73Ta7.92,2.0,original
Ca1.05Hg36.67,2.0,original
Cd10.62,2.0,original
Ce5.81,2.0,original
Co4.41U3.54,2.0,original
Hf8.63Re0.13,2.0,original
Hf0.41Ti3.8,2.0,original
Ir1.59,2.0,original
Mo0.81,2.0,original
Pt5.21Y2.04,2.0,original
Sn0.11Te1.75,2.0,original
Nb3.63Os0.84Rh1.15,2.0,original
Bi3.16Ir1.62,2.0,original
Cd3.5Hg5.04,2.0,original
Co8.05Cu0.26S4.3,2.0,original
Pb6.37Pd0.92Rh0.79,2.0,original
Ir1.1Re0.39,2.0,original
Ca3.54Ge10.78Ir6.85,2.0,original
AuTe2.02,2.0,original
Lu3.29Re2.92,2.0,original
Ba0.64O0.2Pb2.48Sb0.16,2.0,original
Ca3.54Ge3.25Ir6.85,2.0,original
Ag4.53Bi9.92Pb12.54Se8.51,2.0,original
Bi1.47Eu3.35F5.12La0.4S2.07,2.0,original
As1.2Hf9.88Te0.18,2.0,original
Ce5.81Co4.07In8.92,2.0,original
Cr0.38Ru0.41,2.0,original
Ga2.26Y2.04,2.0,original
Hf9.88Zr3.7,2.0,original
Os11.81Pr0.75Ru0.41Sb14.68,2.0,original
Fe3.58Si1.59Y4.44,2.0,original
Pb0.52Sn0.59Te2.37,2.0,original
Ir1.62Se0.11Te4.12,2.0,original
La0.25Os12.44Pr0.44Sb14.68,2.0,original
Pd0.94Sb0.52,2.0,original
Ru5.45Sc5.95,2.0,original
B1.62La1.11Rh5.35,2.0,original
Ru5.45Sc4.95,2.0,original
Os0.62Re1.09,2.0,original
PdSb0.48,2.0,original
H1.9Nb0.66Pd0.61,2.0,original
Ge1.66La1.11Pt4.48,2.0,original
Au2.46Ga0.72,2.0,original
Be12.79U3.54,2.0,original
Pd1.94Sb1.15,2.0,original
Ru2.09,2.0,original
Ag0.16Sn0.71Te2.37,2.0,original
Pd0.43Ti3.06,2.0,original
Al20.94Ga0.18V1.53,2.0,original
Bi1.47La0.83S2.07Zr0.62,2.0,original
Al0.97,2.0,original
La1.11Ni1.55Pt0.59Si0.25,2.0,original
Cu0.13S0.95,2.0,original
Pd1.73Pt0.1Te4.87,2.0,original
Pb2.81Pt0.1Te4.87,2.0,original
B1.62Ir5.11La1.11,2.0,original
Pd0.96Sb0.51,2.0,original
C0.94Sr1.46,2.0,original
Fe3.58Lu0.24Si1.59Tm6.94,2.0,original
Fe3.58Lu1.25Si1.59Y3.48,2.0,original
C0.24La0.76Ni2.3Y0.25,2.0,original
Au7.67Si0.92Sr1.46,2.0,original
Ba6.04Nb12.5O7.73,2.0,original
Te4.87U3.54,2.0,original
Ce3.71La0.18Ru5.45,2.0,original
Al3.05Pd3.98U3.54,2.0,original
Th2.83Y0.13,2.0,original
H1.17Nb0.75Pd0.47,2.0,original
Au1.08Te2,2.0,original
Cu0.13Ir2.32Pt1.32Se2.38,2.0,original
Pt4.72Si0.58Y2.04,2.0,original
Ba0.64Pt2.29Sb1.15,2.0,original
Bi1.47Pd1.94Tb13.87,2.0,original
Al0.22Mg0.48,2.0,original
Pd4.39S0.95,2.0,original
Pd5.61S0.95,2.0,original
Au2.19Ga0.76,2.0,original
La1.11Ru5.45,2.0,original
Th2.65Y0.25,2.0,original
La1.11Tl13.51,2.0,original
B3.4Dy10.45Ir4.76Rh2.06,2.0,original
Lu3.29Ni2.3Si0.92,2.0,original
Os11.19Pr0.75Ru0.97Sb14.68,2.0,original
Au23.17Te12.35,2.0,original
La1.11Rh8.99,2.0,original
Au2.07Ga0.78,2.0,original
Ir3.36Y6.83,2.0,original
Sn0.72Te2.37,2.0,original
Gd0.34La1.04Ru5.45,2.0,original
PdSb0.47,2.0,original
Al2.03La1.1,2.0,original
Ce5.81Ge2.41Ir1.62,2.0,original
Pb3.1Te2.37,2.0,original
Nd0.84Os12.44Pr0.59Sb14.68,2.0,original
Pb0.97Sn0.44Te2.37,2.0,original
La1.09,2.0,original
La1.09Tb0.1,2.0,original
Ce5.81Ir1.62Si0.92,2.0,original
Zr1.81,2.0,original
Rh1.7,2.0,original
Ca1.05Hg21.96,2.0,original
Ca1.05Hg7.24,2.0,original
Ge0.73Mo3.59,2.0,original
La6.85Si0.92,2.0,original
Mn4.64Ni1.48U21.67,2.0,original
Nb0.59Pd0.71,2.0,original
As0.65Ni0.43Pd1.43,2.0,original
Au7.67Nb2V0.96,2.0,original
Co8.5S4.3,2.0,original
B1.62Co0.96Ni4.49Tm7.72,2.0,original
Cu0.13Se1.15,2.0,original
Dy10.45Mo7.34S8.78,2.0,original
Ce5.81Co2.14In8.92Rh0.79,2.0,original
Er6.87Pd3.98Sn0.78,2.0,original
B3.4Ho10.97Rh4.25Ru4.33,2.0,original
Ti4.12,2.0,original
Ir0.46V0.47,2.0,original
Y2.02,2.0,original
Al2.03Ge1.57U3.54,2.0,original
B1.62Ru2.65,2.0,original
Ce5.21In8.92Rh1.7,2.0,original
B5.18Ce0.11Y1.92,2.0,original
B5.18La0.4Y0.85,2.0,original
Hf19.86Rh1.7,2.0,original
As1.47Fe2.17Pt0.1Sr1.46,2.0,original
Al20.94Ga0.29V1.53,2.0,original
As0.65H0.15Ni2.3Pr0.75,2.0,original
Ni2.3Sm6.8,2.0,original
As1.47Ba0.64Pt4.72,2.0,original
Bi1.47Ce5.81S2.07,2.0,original
Bi1.47Eu3.35F5.12La0.4S1.84,2.0,original
Ge1.57Pt4.72Y2.04,2.0,original
Al0.98Ta15.96,2.0,original
Au2.09Ga0.78,2.0,original
Au1.47Ga0.87,2.0,original
Se0.66Ta5.24Te1.88,2.0,original
Ca1.05Si0.58,2.0,original
Pt2.29Tl8.96,2.0,original
Re0.91Ta1.76,2.0,original
Pd1.04W2.27,2.0,original
Au2.63Te1.5,2.0,original
Ir3.36La1.11Si0.58,2.0,original
La3.98Ru5.45Sn11.37,2.0,original
Ce5.81Co4.41In8.81,2.0,original
Ge1.39La1.11,2.0,original
Pt4.72Y2.04,2.0,original
Ce5.81Co3.5In8.92Rh0.24,2.0,original
B1.62Ca0.64Pt7.15,2.0,original
Pd0.98Sb0.49,2.0,original
Co10.77Rh6.44Sn15.78Tm38.84,2.0,original
Ce1.01Ge9.94La0.83Pt9.58,2.0,original
Ce5.81Co3.09In8.92Rh0.4,2.0,original
Cu0.13S2.07,2.0,original
Sb1.15Sn0.78,2.0,original
Mo0.68Zr1.12,2.0,original
Au7.48Ga2.26,2.0,original
Au1.31Te1.93,2.0,original
Ce5.81Co4Hg0.34In8.81,2.0,original
Ba25.45Si33.49,2.0,original
In1.45Te2.37,2.0,original
Ge2.41Te9.86,2.0,original
Al0.98N5.82,2.0,original
P1.78Rh1.7Zr3.7,2.0,original
La3.98Ru11.04Sn11.37,2.0,original
Os9.93Pr0.75Ru2.09Sb14.68,2.0,original
Pa59.95Zr0.81,2.0,original
Os0.84Re0.99,2.0,original
Au1.62Te1.83,2.0,original
Ga1.1Nb1.1Ni4.79,2.0,original
As1.47Na3.91Sn1.66,2.0,original
Pd1.94Te2.37,2.0,original
Ru5.45Si0.58U3.54,2.0,original
B1.62Ru8.24Th1.74Y0.85,2.0,original
Os10.56Pr0.75Ru1.53Sb14.68,2.0,original
Th2.29Y0.49,2.0,original
Nb0.8Pd0.17,2.0,original
Al20.94V1.53,2.0,original
Al20.94Ga0.12V1.53,2.0,original
La0.11Os12.44Pr0.52Sb14.68,2.0,original
Ir5.11Th25.48,2.0,original
Tl13.51Y2.04,2.0,original
Ru5.45Y2.04,2.0,original
H0.37Nb0.85Pd0.31,2.0,original
Zr3.66,2.0,original
Ce5.81CoIn8.92Ir1.19,2.0,original
La1.11Pt2.29Si0.92,2.0,original
Bi0.29Zr2.54,2.0,original
Os9.3Th25.48,2.0,original
Rh1.7Te4.87,2.0,original
Bi0.29Zn1.4,2.0,original
Al3.02Pd3.98U3.54,2.0,original
Au0.68Ga2.26,2.0,original
Nd1.49Ru5.45Th2.36,2.0,original
Th3.2,2.0,original
Au7.51Ga2.26,2.0,original
Ge1.57Ir3.36Th3.56,2.0,original
Bi6.54Ca0.43Cu2.02O4.08Sr6.74Tm11.61,2.0,original
O0.48Ru2.65Sr3.22,2.0,original
Am59.14,2.0,original
Co13.5Y9.22,2.0,original
Co27.14Lu13.45Sn16.67,2.0,original
Ce5.81Co1.68In8.92Rh0.97,2.0,original
Ag29.09F10.35H3.58O1.59,2.0,original
Ag1.82Ge0.36,2.0,original
Al0.34Mg1.89,2.0,original
Be4.89Ir1.62,2.0,original
Ce5.81Co8.96,2.0,original
Co4.23U21.67,2.0,original
Nb1.1,2.0,original
Nb3.63Si0.25,2.0,original
Zr3.31,2.0,original
Os0.21W4.71,2.0,original
Tc1.2V0.66,2.0,original
Pb3.13Sb1.15,2.0,original
La1.11Pt2.29Si0.25,2.0,original
Au7.67Nb3.63,2.0,original
B3.4Eu6.81Ru1.53Th12.33,2.0,original
La1.11Sn1.22Tl6.69,2.0,original
Cs10.49,2.0,original
In3.49Mo18.58Se11.58,2.0,original
Nb0.75Pd0.26W0.46,2.0,original
Os18.71Sc19.99Sn16.67,2.0,original
Lu3.29,2.0,original
Ir6.85Lu16.6Si3.27Yb0.62,2.0,original
Ge1.57Ir3.36La1.11,2.0,original
B93.31,2.0,original
La1.11P1.78Pt7.15,2.0,original
Ge2.41Pd1.94Sr1.46,2.0,original
La1.11Pt4.72Si0.58,2.0,original
Bi3.16Eu20.66F20.82S4.3,2.0,original
Ge1.57La1.11,2.0,original
In2.97Sn1.03Y2.04,2.0,original
H3.07Pd1.84,2.0,original
La3.12Pr0.44Se2.38,2.0,original
Ta4.71,2.0,original
Sb1.15Ti5.84V1.23,2.0,original
Al21.25V1.53,2.0,original
Al21.25V15.81,2.0,original
La1.11Te2.37,2.0,original
Rh3.52Y6.83,2.0,original
Sn0.65Te2.37,2.0,original
La9.72Pd6.02,2.0,original
B3.4Ir6.15Rh0.6Tm7.72,2.0,original
V0.71,2.0,original
Pd0.92Sb0.53,2.0,original
Au1.47Te1.88,2.0,original
Nd1.09Os12.44Pr0.55Sb14.68,2.0,original
Ba0.64Sb2.38Ti8.52,2.0,original
C0.24Pt2.29U7.17,2.0,original
Be0.88,2.0,original
Ce5.21Co4.41In8.92Yb0.92,2.0,original
Ce1.25La0.77Ru5.45,2.0,original
C1.29Hg7.24Rb5.68,2.0,original
Re0.9Ta1.81,2.0,original
V0.56,2.0,original
La0.77Pb9.62Th0.79,2.0,original
Pd1.01Sb0.48,2.0,original
Sn0.71Te2.4,2.0,original
Bi1.47Pt2.29Se0.54,2.0,original
Pt0.59Ta3.63,2.0,original
Pt1.07W2.59,2.0,original
Tl4.41,2.0,original
Ir1.97Ru2.09Th3.56,2.0,original
Nb0.75Pd0.26,2.0,original
Al0.98La3.98,2.0,original
Si0.25,2.0,original
Ir1.62La1.11Si0.92,2.0,original
H2.95Pd1.94,2.0,original
Se0.54Ta5.24Te2.37,2.0,original
Er0.52La,2.0,original
Pd0.9Sb0.54,2.0,original
Ge1.5La1.11Pd3.98,2.0,original
Ce5.21Co4.41In8.92Sm0.57,2.0,original
Sn0.73Te2.4,2.0,original
Ce5.81Co2.59In8.92Rh0.6,2.0,original
Ce1.31La0.76Ru5.45,2.0,original
Ge0.11In0.16Sn0.41Te2.37,2.0,original
La0.97Nd0.35Pt2.29Si0.25,2.0,original
Ce5.81Co3.05In8.92Rh0.42,2.0,original
Ce4.91Co4.41In8.92Nd1.84,2.0,original
Sn0.75Te2.37,2.0,original
Ir1.62Si0.25Ti4.19,2.0,original
Cr0.39Ru0.35,2.0,original
Ni4.79P3.64Sr1.46,2.0,original
Mn0.48Ni0.48Zr2.52,2.0,original
C0.24Pt2.17U7.17,2.0,original
Ce5.81Co3.84In8.92Ni0.12,2.0,original
Ag8.28Ce5.81Si0.58,2.0,original
Ce5.81Co4In8.88,2.0,original
Mo3.59Si0.25,2.0,original
Cd23.68O1.31Re2.92,2.0,original
Se1.15W5.25,2.0,original
Dy2.02Pd3.98Sn0.78Y1.56,2.0,original
Bi1.47Cu0.13,2.0,original
Cu2.02K5.32S3.19,2.0,original
Fe0.7Ni0.43U21.67,2.0,original
Ge0.32Pt1.07,2.0,original
Pa79.94,2.0,original
In7.11Sb1.15Te7.36,2.0,original
Re0.84Ta2.03,2.0,original
Co4.41Si0.58,2.0,original
Gd10.76Mo7.34S8.78,2.0,original
B3.4Ru11.04Y2.04,2.0,original
B3.4Ho10.97Rh7.17,2.0,original
Os4.6Sn2.19Tb13.87,2.0,original
Ho10.97Os3.66Sn2.1,2.0,original
Br22.17,2.0,original
La3.98Pd10.1Si0.25,2.0,original
Th3.38,2.0,original
B3.4Os3.03Y2.04,2.0,original
Ir10.33Sc19.99Sn16.67,2.0,original
I20.53Mo7.34S6.54,2.0,original
Ge0.73U25.3,2.0,original
Ge15.81Ir10.33Sc19.99,2.0,original
Os18.71Sn16.67Tb55.58,2.0,original
Ho44.13Os18.71Sn16.67,2.0,original
Pb3.08Te2.37,2.0,original
Sn0.78,2.0,original
Ba0.64O0.2Pb2.64,2.0,original
Co0.55Ni1.93Zr7.55,2.0,original
Ce4.83Co4.41In8.92Yb1.54,2.0,original
Ge7.43Pr0.75Pt9.58Sb3.61,2.0,original
Ge6.6Pr0.75Pt9.58Sb4.84,2.0,original
As1.47Ba0.48Fe2.3Na0.54,2.0,original
Ce5.81Co4.41Si0.92,2.0,original
Ru0.27U3,2.0,original
Bi1.47Ce5.21S2.07,2.0,original
Hg7.24Mg3.17,2.0,original
Ir0.46V2.06,2.0,original
Th3.56,2.0,original
As0.65Ni0.11Pd1.69,2.0,original
As0.24Pd0.8,2.0,original
Ir1.62V1.53,2.0,original
Ce5.81Co2.82In8.92Rh0.51,2.0,original
Ce5.81Co3.36In8.92Rh0.29,2.0,original
Ga3.41Zr3.7,2.0,original
Hf9.88Ti4.19,2.0,original
La1.1Tb0.14,2.0,original
B3.4Ru2.65Y2.04,2.0,original
Al0.98Ni4.79Zr3.7,2.0,original
Ba0.64Ge0.57Ni4.79P2.15,2.0,original
Au3.23Ga0.61,2.0,original
La1.11Pb2.51Tl9.82,2.0,original
Ti2.67Zr1.19,2.0,original
Co2.14Ni1.06U21.67,2.0,original
Ca1.05Si0.65,2.0,original
Ce5.81Co4.41Hg0.37In8.81,2.0,original
Sn0.72Te2.4,2.0,original
Ti2.72Zr1.12,2.0,original
Pt2.29V1.92,2.0,original
Ir3.36S4.3Zn1.4,2.0,original
Er7.65Rh1.88Sn3.07,2.0,original
Ti1.16Zr2.54,2.0,original
Cr0.11V0.54,2.0,original
Ta4.06W1.1,2.0,original
Ce5.81Co4Hg0.17In8.85,2.0,original
Ni2.3Si0.92Y2.04,2.0,original
Au2.92Ga0.65,2.0,original
Ga3.41Nb6.17,2.0,original
La1.11N5.82,2.0,original
Ti1.29Zr2.39,2.0,original
Os1.03Re0.89,2.0,original
Pt1.12W2.48,2.0,original
Ge8.27Rh7.17Y11.62,2.0,original
Ca1.05Si0.55,2.0,original
Cd5.88Ce5.81Co4.41In8.02,2.0,original
B0.71Si0.25,2.0,original
Mo0.58,2.0,original
Mo1.1Si0.15,2.0,original
B1.62Os3.03Sc4.95,2.0,original
La0.83Pb9.62Pr0.13,2.0,original
Al2.03Si0.58U3.54,2.0,original
Nb0.6Pd0.29,2.0,original
K2.16O0.2W5.25,2.0,original
P1.78Ru2.65Ti4.19,2.0,original
Rh1.33Ru0.41Se1.15,2.0,original
Ce5.81Ge2.41Rh1.7,2.0,original
Pb6.05Rh1.7,2.0,original
Pd1.94Tl8.96,2.0,original
Er30.88Rh10.81Sn16.67,2.0,original
La1.32Nb1.1Se1.85,2.0,original
Cr0.38Re0.24,2.0,original
Ce5.36Co4.41In8.92,2.0,original
Sb2.38Yb9.91,2.0,original
Na1.93Nb1.1S2.07,2.0,original
Al2.03N5.82Nb3.63,2.0,original
Be12.82Ru2.65,2.0,original
Pd1.94,2.0,original
Cd0.66Se1.15,2.0,original
Cd0.42Cu0.11S2.07,2.0,original
Cu0.13Te4.87,2.0,original
Ge1.57Sc4.95,2.0,original
Pd1.73Te4.87,2.0,original
Re1.43Ta5.24,2.0,original
Sc0.19Ti3.8,2.0,original
Fe3.58,2.0,original
Cr0.23Ru1.25,2.0,original
Mo0.55,2.0,original
W5.25,2.0,original
Mo3.59Si0.35,2.0,original
P1.78Rh3.52,2.0,original
B1.62Ho8.76Ni4.79,2.0,original
Rh1.88Sn2.63Y2.04,2.0,original
Fe3.58Si1.59Tm15.5,2.0,original
Er7.65Os3.35Sn2.28,2.0,original
Ce5.81In8.92Ir1.62,2.0,original
Pr0.75Ru11.04Sb14.68,2.0,original
In1.68K10.77Mo18.58Se11.58,2.0,original
Ce3.41La0.25Ru5.45,2.0,original
Ru16.64Sn16.67Y9.22,2.0,original
Au2.82Te1.44,2.0,original
Ca2.29Pt7.15Si1.59,2.0,original
In1.68N5.82,2.0,original
Ge1.4La1.11Pt4.72,2.0,original
La1.11Pd3.98Sb2.38,2.0,original
Bi1.47Ce5.81Pd1.94,2.0,original
Au15.42Pb3.13,2.0,original
Mo1.1Te4.37,2.0,original
B1.62Nb1.1,2.0,original
La0.54Y0.61,2.0,original
Pd1.12W2.06,2.0,original
Al0.87Li0.63,2.0,original
B3.4Dy10.45Ir5.87Rh0.9,2.0,original
Au7.67Zn6.11,2.0,original
Al3.08Pd3.98Th0.28U3.18,2.0,original
Ce1.49La0.71Ru5.45,2.0,original
La1.11Ni2.05Pt0.1Si0.25,2.0,original
Lu0.83Rh1.2,2.0,original
Co16.23Rh4.25Sn15.78Tm38.84,2.0,original
Nd1.34Os12.44Pr0.52Sb14.68,2.0,original
P1.78Rh0.97Ru0.97,2.0,original
As1.47Ca1.05Pd3.98,2.0,original
Ge8.27Pr0.75Pt9.58Sb2.38,2.0,original
Cr0.38Ru0.36,2.0,original
Pt2.29V2.72,2.0,original
Er7.26Pd3.98Sn0.78,2.0,original
Co2.14Fe0.38Zr7.55,2.0,original
Cu0.13Rh2.97Se2.38Sn0.16,2.0,original
C0.24La0.83Ni2.3Y0.13,2.0,original
B3.4Ho10.97Ir5.45Rh1.33,2.0,original
Ce3.71Pr0.24Ru5.45,2.0,original
Au7.67Sn0.78,2.0,original
In5.3Te9.86,2.0,original
Pd1.94Sb2.38,2.0,original
Th1.74Y0.85,2.0,original
Tc1.2W4.71,2.0,original
Ho13.18Mo7.34S8.78,2.0,original
Ce5.81Ru8.24Si0.58,2.0,original
Au7.57Ga2.26,2.0,original
Er30.88Os18.71Sn16.67,2.0,original
Fe0.38Ni1.06Zr7.55,2.0,original
Ge1.49La1.11Pd3.98,2.0,original
U3.14,2.0,original
P5.5Sn3.43,2.0,original
La2.91Pr0.55Tl4.41,2.0,original
Au1.47In1.68Pd3.57Y2.04,2.0,original
U3.54,2.0,original
Bi1.47Er7.65Pd1.94,2.0,original
Nb1.1Pt2.29Si0.25,2.0,original
Ce5.81Co4.41In8.76,2.0,original
As2.3Sn3.43,2.0,original
Pd0.85Sb0.45,2.0,original
La1.11Ni2.3Si0.25,2.0,original
P1.78Rh1.7,2.0,original
Nb0.7Pd0.24,2.0,original
Ce5.81Co4.41In8.78,2.0,original
Ce5.21Co4.41In8.92,2.0,original
Se1.15Ta2.03Ti2.46,2.0,original
Os7.42Pr0.75Ru4.33Sb14.68,2.0,original
Pt2.29Sb1.02,2.0,original
Bi1.47Pt2.29,2.0,original
La1.07,2.0,original
H2.89Pd1.94,2.0,original
Ag2.03Ba0.64Si0.42,2.0,original
Cu0.12La2.33O0.48,2.0,original
Ce5.81In8.92Ir1.1Rh0.42,2.0,original
Sn0.74Te2.4,2.0,original
Ag4.11La1.11,2.0,original
Au7.67Ga1.1,2.0,original
Bi1.47Pd1.94Te2.37,2.0,original
Pt4.72W15.87,2.0,original
Ti4.15,2.0,original
U3.34,2.0,original
Nb0.59Ru0.97,2.0,original
Pd1.94Sb1.15Te2.37,2.0,original
Ge0.48Mo1.1,2.0,original
Pd1.94Se0.54Te2.37,2.0,original
Ir0.49Ta3.37,2.0,original
Ag0.37In1.5Te2.37,2.0,original
Al0.98Pb3.13,2.0,original
Hg14.6K5.32,2.0,original
Ta4.17W,2.0,original
N5.82Nb1.06,2.0,original
N5.82Nb1.09,2.0,original
I20.53,2.0,original
Ag2.03Pd0.92Th7.22,2.0,original
Ru2.3,2.0,original
Ho0.38La1.05,2.0,original
Ce5.81In8.63Rh1.7,2.0,original
Al3.08Pd3.98U3,2.0,original
Al3.08La0.11Pd3.98U2.46,2.0,original
Al3.08La0.54Pd3.98U1.37,2.0,original
Al3.08Pd3.94U3.54,2.0,original
La1.11Sb2.38,2.0,original
Ru2.65Sb1.15,2.0,original
Nb2.37Pd1.26Se2.99,2.0,original
Ag0.78Sn0.6Te2.37,2.0,original
Se0.91Ta5.24Te0.88,2.0,original
Se0.85Ta5.24Te1.13,2.0,original
Ce3.41Co4.41In8.92Yb3.91,2.0,original
In2.59La1.11Sn1.22,2.0,original
La1.11Sn1.88Tl3.28,2.0,original
Ce2.81Co4.41In8.92Yb4.91,2.0,original
Ce4.91Co4.41In8.92Yb1.41,2.0,original
Ir1.62Te7.36,2.0,original
La1.11Pb4.75Sn1.22,2.0,original
Rh1.33Y0.13,2.0,original
Os1.25Re0.79,2.0,original
La0.54Os12.44Pr0.28Sb14.68,2.0,original
N3.45Ti4.19,2.0,original
Au3.78Ga0.53,2.0,original
Er7.65Pd3.98Sn0.78,2.0,original
Ge1.57Pd3.98Yb9.91,2.0,original
Ga0.62Sb0.43,2.0,original
B3.4Dy10.45Ir5.45Rh1.33,2.0,original
Nb2.37Pd1.94S3.19Se1.15,2.0,original
Se0.42Ta5.24Te2.87,2.0,original
Os0.52Pr0.75Ru10.48Sb14.68,2.0,original
La1.07Tl13.51,2.0,original
Al3.06Ni4.79U3.54,2.0,original
In1.38Te2.37,2.0,original
Bi1.47Pt2.29Te2.37,2.0,original
Al2.92Ga0.12Pd3.98U3.54,2.0,original
Ga2.26La1.11,2.0,original
Au15.42Ce5.81Si0.58,2.0,original
Al20.94La1.11Nb2.37,2.0,original
Al3.08Ni4.79U3.47,2.0,original
Mo1.1Te4.32,2.0,original
Mn0.38Zr2.6,2.0,original
Al3.08Ni4.84U3.54,2.0,original
Ge1.57Pd3.98Y2.04,2.0,original
C0.59Hg7.24K5.32,2.0,original
Al3.1Ni4.79U3.54,2.0,original
Ag8.28Pb9.62S0.95,2.0,original
Ag8.28Pd6.02S0.95,2.0,original
Al0.93Li0.27,2.0,original
Al3.08Ni4.74U3.54,2.0,original
P1.78Rh0.42Ru1.81,2.0,original
Al3.08Ni4.79U3.54,2.0,original
Cs3.31O0.2W5.25,2.0,original
Ge1.57La1.11Pd3.98,2.0,original
B1.62Ir1.62V1.53,2.0,original
Ga1.1Hf9.88Ni4.79,2.0,original
Al20.94Pr0.75Ti8.52,2.0,original
Be0.82,2.0,original
La1.11Pb7.18Sn0.56,2.0,original
Ba0.64Pd0.71Si0.45,2.0,original
Ce5.81Co4In8.92,2.0,original
In1.68Lu3.29Pd2.18Pt2,2.0,original
In1.68Lu3.29Pd2.1Pt2.09,2.0,original
Be0.62Ti0.2Zr0.33,2.0,original
Au38.67Sn0.78,2.0,original
Mo3.59Pt4.72,2.0,original
Lu3.29S0.95,2.0,original
B1.62Ce5.81Ru8.24,2.0,original
Cr0.33Rh0.42,2.0,original
F0.51K0.41O0.16W5.25,2.0,original
Os18.71Sn16.67Tm31.06,2.0,original
La1.11Rh3.52Si0.58,2.0,original
Ru5.45Si0.58Y2.04,2.0,original
Rh3.52Si0.58Y2.04,2.0,original
Pd3.98Si0.58Y2.04,2.0,original
Os6.17Si0.58Y2.04,2.0,original
Ir3.36Si0.58Y2.04,2.0,original
Ru5.45Si0.58Th3.56,2.0,original
Rh3.52Si0.58Th3.56,2.0,original
Pd3.98Si0.58Th3.56,2.0,original
Os6.17Si0.58Th3.56,2.0,original
Pt4.72Si0.58Th3.56,2.0,original