formula,Tc,type
Bi3.16Ce1.97Cu0.76Dy17.19O2.22Sr3.22,27.0,original
Ba1.72Cu1.26O1.31Y2.04Zn0.4,27.0,original
Ba0.27Bi1.47K1.78O0.2,27.0,original
Cu0.13La2.44O0.48,27.0,original
Ca1.05Cu0.76La2.26O1.03,27.0,original
Cu0.13F0.93Nd9.83O0.42,27.0,original
Cu0.13F1.45Nd9.83O0.39,27.0,original
Co1.23Cu1.2O1.23Sr3.22Y2.04,27.0,original
Bi3.08Cu0.13O0.48Sr2.96,27.0,original
Ce2.81Cu0.76Nb1.1O2.15Sm10.26Sr3.22,27.0,original
Ca0.24Cu0.76Ga1.1O1.31Sr3.22Y1.21,27.0,original
Ba1.51Cu1.39La1.4O1.37,27.0,original
Ba1.51Cu1.39La1.4O1.4,27.0,original
Cu0.13Nd9.83O0.48,27.0,original
Cu0.13F1.14Nd9.83O0.41,27.0,original
Cu0.13La2.33O0.48,27.0,original
Cu0.13La2.32O0.48,27.0,original
Cu0.13La2.4O0.48,27.0,original
Cu0.13La2.39O0.48,27.0,original
Cu0.13La2.37O0.48,27.0,original
Cu0.13La1.04O0.48Pr0.63,27.0,original
Cu0.13La0.83O0.75Sr1.81Tl4.41,27.0,original
Cu0.13La2.24Nd0.35O0.48,27.0,original
Cu0.13La2.23Nd0.35O0.48,27.0,original
Ba1.18Ca0.18Cu1.39La1.4O1.23,27.0,original
Cu0.13La2.25O0.48,27.0,original
Bi2.49Ca0.12Cu1.39O1.05Sr0.4Yb7.41,27.0,original
Cu0.13La2.26O0.48,27.0,original
Ba1.18Cu1.39La0.47O1.27Pr0.21Sr0.58,27.0,original
Cu0.13La2.38O0.48,27.0,original
Ca2.07Cl16.44Cu0.13Na0.66,27.0,original
C10.41K5.32Rb11.45,27.0,original
B1.53Mg3.17,27.0,original
Cu0.83Nb0.97O1.56Sr3.22Y2.04,27.0,original
Cu0.13La2.41O0.48,27.0,original
As0.65Fe1.02La1.11,27.0,original
As1.47Fe2.3Sr1.46,27.0,original
Ce0.53Cu0.13La1.11O0.45Pr0.66,27.0,original
Cu0.76Ho10.97Mo1.1O1.59Sr3.22,27.0,original
As0.65F0.62Fe1.02Sm6.8,27.0,original
As0.65F0.46Fe1.02La1.11,27.0,original
Al2.03As1.47Ca4.78Fe2.3O0.97,27.0,original
As0.9Fe2.3P1.22Sr1.46,27.0,original
As0.81Fe2.3P1.4Sr1.46,27.0,original
As1.47Ba0.64Fe1.92Ir0.41,27.0,original
As1.47Fe2.3O1.03Sr6.74V1.53,27.0,original
As0.65F0.41Fe1.02La1.11,27.0,original
As0.32F0.41Fe1.02La1.11P0.66,27.0,original
As1.47Eu6.81Fe2.3,27.0,original
As1.47Fe2.3La0.17Na2.56,27.0,original
As1.47Fe2.3Na3.12,27.0,original
As14.67Ca12.24Fe12.15Pt10.31,27.0,original
Cu0.13La2.31O0.48,27.0,original
Ba0.64Cu1.39La1.83O1.3Sr0.58,27.0,original
Ca1.99Cl16.44Cu0.13Na0.9,27.0,original
Cu0.13La2.3O0.48,27.0,original
As14.67Ca10.71Fe12.54Pr0.93Pt7.15,27.0,original
As0.32F0.41Fe1.02La1.11P1.03,27.0,original
Ba1.72Cu1.39O1.16Y2.04,27.0,original
Cu0.13H0.29La2.19O0.48Sr0.14,27.0,original
Cu0.12La2.33O0.48,27.0,original
Al2.03As1.47Ca4.78Fe2.3O0.94,27.0,original
As0.71Fe2.3P1.63Sr1.46,27.0,original
Al2.03As1.47Ca4.78Fe2.3O1.03,27.0,original
As1.47Ba0.1Fe2.17K2.59,27.0,original
Ba1.72Cu1.39Nd4.59O1.21,27.0,original
Ba1.72Cu1.39Eu3.35O1.31Pr0.36,27.0,original
Cu0.13La2.26Nd0.84O0.49,27.0,original
Al0.24B1.62Mg2.19,27.0,original
As0.45Ba0.64Fe2.3P2.22,27.0,original
As0.65F0.46Fe1.02La0.83Y0.13,27.0,original
As3.12Eu6.81Fe4.86Rb5.68,27.0,original
Cu0.13O0.75Sr3.22,27.0,original
Bi3.08Cu0.13La0.25O1.13Sr2.6,27.0,original
Ba1.24Cu1.39Nd7.09O1.33,27.0,original
Ba1.51Cu1.39O1.32Pr0.13Sm6.8,27.0,original
Cu0.11La2.38Li0.16O0.48,27.0,original
Cu0.13La2.28O0.48,27.0,original
Ca1.98Cl16.44Cu0.13Na0.94,27.0,original
La2.3O0.48,27.0,original
As14.67Ca12.24Fe12.15Pt9.71,27.0,original
Cu0.13La2.36O0.48,27.0,original
Ba1.72Cu1.39O1.15Y2.04,27.0,original
Cu0.18La2.36O0.48,27.0,original
Ce0.71Cu0.13Nd9.09O0.48,27.0,original
Ba1.35Cu1.39La1.47O1.32,27.0,original
Ba0.21Bi1.46K2.05O0.2,27.0,original
Ca2.04Cl16.44Cu0.13Na0.74,27.0,original
La2.28O0.48,27.0,original
Cu0.13La2.16Nd0.45O0.48,27.0,original
As0.65F0.15Fe1.02La1.11,27.0,original
As1.47Ba0.64Co0.59Fe2.1,27.0,original
Fe1.92K1.5Se1.15Tl1.69,27.0,original
Fe2.3K1.5Se1.15Tl1.69,27.0,original
Fe2.3Rb4.53Se1.09Te0.13,27.0,original
Ba1.35Cu1.39O1.33Sm9.23,27.0,original
Ba1.72Cu1.36O1.2Y2.04,27.0,original
Cu1.3O1.31Pr0.36Re0.17Sr3.22Y0.85,27.0,original
Ba0.28Bi1.47K1.72O0.2,27.0,original
B1.17Mg3.17,27.0,original
As0.65Fe0.96Mg1.53O0.2Sr3.22Ti2.02,27.0,original
As0.65F0.67Fe1.02La1.11,27.0,original
As14.67Ca11.36Fe12.54Pt7.15Sm4.8,27.0,original
Bi2.82Ca1.05Cu0.66O1.59Pb0.53Sr3.22,27.0,original
Cu0.11La2.33O0.48,27.0,original
Al0.14B1.62Li1.37Mg1.86,27.0,original
As14.67Ca10.44Fe12.54La1.76Pt7.15,27.0,original
As1.47Ca0.73Fe1.02,27.0,original
As0.32F0.62Fe1.02La1.11P0.66,27.0,original
As0.24F0.62Fe1.02La1.11P0.85,27.0,original
Cu0.8Gd8.95O1.59Ru2.51Sr3.22,27.0,original
Ba3.23Cu3.28La3.41O3.28,26.0,original
Cu0.13La2.4O0.48,26.0,original
Bi1.47Cu0.13O1.03Pb3.13Sr1.92,26.0,original
Cu0.13La2.41O0.48,26.0,original
Cu1.2O1.23Sr3.22Ti1.16Y2.04,26.0,original
Cu0.13F1.45Nd9.83O0.39,26.0,original
Bi3.08Cu0.13Nd0.84O0.48Sr2.96,26.0,original
Ca2.15Cl15.96Na0.18,26.0,original
Ca2.05Cl15.65Na0.33,26.0,original
Ba0.1Cu1.27O1.32Sr2.34Y2.04,26.0,original
Ba1.72Cu1.39O1.15Y2.04,26.0,original
Ba0.64Ca1.05Cu1.39Nd3.59O1.31Pr0.17,26.0,original
Cu0.13La0.83O0.46Sm6.8,26.0,original
Cu0.13La2.43O0.48,26.0,original
Ba1.72Cu1.39O1.2Pr0.28Y1.09,26.0,original
Ba1.72Cu1.39O1.27Pr0.13Sm5.42,26.0,original
Cu0.13La2.33O0.48,26.0,original
Ce3.29Cu0.76Eu12.35O2.15Ru2.42Sr2.69,26.0,original
Ca0.55Cu0.13La1.11O0.75Sr0.4Tl4.41,26.0,original
Cu0.13H1.94La2.26O0.48,26.0,original
Ca2.17Cl16.44Cu0.13Na0.34,26.0,original
Ba1.72Cu0.26O1.03Tl7.82,26.0,original
Ba1.72Cu0.13Hg7.24O0.58,26.0,original
Ba1.72Cu1.19Fe0.15O1.31Y2.04,26.0,original
Cu0.13La2.23Nd0.47O0.48,26.0,original
Cu0.13La2.21Nd0.47O0.48,26.0,original
Cu0.13La1.62Nd2.34O0.48,26.0,original
Cu0.13La2.37O0.48,26.0,original
Ba1.72Cu1.36Li0.34O1.2Y2.04,26.0,original
Ba1.72Ca0.18Cu1.39Eu4.73O1.07,26.0,original
Cu0.13La2.53O0.48,26.0,original
Ba1.18Cu1.39La0.54O1.28Pr0.21Sr0.58,26.0,original
Ca2.07Cl16.44Cu0.13Na0.64,26.0,original
Ce0.47Cu0.13La1.11O0.47Pr0.66,26.0,original
Cl8.18Hf9.88Li3.57N5.82,26.0,original
As0.65F0.15Fe1.02La1.11,26.0,original
As0.65F0.41Fe1.02La1.11,26.0,original
As0.65F0.46Fe1.02La1.11,26.0,original
As0.98Eu6.81Fe2.3P1.03,26.0,original
As1.47Ba0.37Fe2.3K1.23,26.0,original
Cu0.76Mo1.1O1.59Sr3.22Y1.56,26.0,original
As1.47Fe2.3Mg2.51O1.03Sr6.74Ti5.06,26.0,original
As1.03Eu6.81Fe2.3P0.92,26.0,original
As0.65Fe1.02O0.2Sr3.22V0.73,26.0,original
As0.65Fe1.02Na3.36,26.0,original
As0.65Fe1.02Na3.91,26.0,original
As1.47Ba0.39Fe2.3K1.18,26.0,original
As1.46Ca0.82Fe1.02Pr0.11,26.0,original
As14.67Ca9.28Fe12.54La3.09Pt7.15,26.0,original
As0.48F0.41Fe1.02La1.11P0.29,26.0,original
As3.12Ba0.64Cs10.49Fe4.86,26.0,original
As0.65F0.46Fe1.02La0.9,26.0,original
As1.47Fe2.3Na3.32,26.0,original
Ba0.13Bi1.47K2.46O0.17,26.0,original
Cu0.13La2.23O0.48,26.0,original
As0.65Fe1.02La0.93,26.0,original
As0.65F0.3Fe1.02La1.11,26.0,original
Cu0.13La2.55O0.48,26.0,original
Ba1.72Cu1.39O1.12Y1.56,26.0,original
As1.47Ba0.64Fe2.07Ru0.35,26.0,original
As0.65Fe1.02O0.2Sr3.04V0.73,26.0,original
As1.47Ba0.32Fe2.3Na1.14,26.0,original
Ba1.72Cu1.95O1.59Y2.04Zn0.21,26.0,original
Ce2.81Cu1.08Eu14.91Fe0.38O1.93Sr2.04,26.0,original
Cu0.13La2.48O0.5,26.0,original
Al0.12B1.62Mg2.58,26.0,original
Al0.12B1.62Mg2.56,26.0,original
Cu0.13La2.3O0.48,26.0,original
As0.65F0.46Fe1.02La0.83Y0.13,26.0,original
As0.65Ca1.05F5.12Fe1.02,26.0,original
As0.48F0.15Fe1.02La1.11P0.29,26.0,original
Ba2.8Cu3.28La2.55O3.41Y2.04,26.0,original
Ba0.16Bi1.47K2.32O0.2,26.0,original
Ba1.72Cu1.39O1.23Pr0.13Sm5.42,26.0,original
Cu0.13La2.26O0.48,26.0,original
Ba0.18Bi1.47K2.21O0.19,26.0,original
Cu0.13La2.26Nd0.84O0.5,26.0,original
Al0.16B1.62Li1.55Mg1.69,26.0,original
Al0.14B1.62Mg2.51,26.0,original
Au1.05B1.62Mg2.69,26.0,original
As1.47Ba0.26Fe2.3K1.83,26.0,original
As0.65Fe1.02La0.97,26.0,original
As0.65F0.46Fe0.98La1.11,26.0,original
Ba0.21Bi1.47K2.05O0.2,26.0,original
Cu0.13La2.29O0.48,26.0,original
Cu0.13La2.2Nd0.47O0.48,26.0,original
Ba0.16Bi1.47K2.31O0.2,26.0,original
Ba1.72Cu2.15La2.4O2.12,26.0,original
Cu0.76Gd8.95O1.59Ru2.62Sr3.22,26.0,original
Cl8.18Hf9.88N5.82,26.0,original
B1.43Mg3.17,26.0,original
As0.65Fe1.02La0.96,26.0,original
Cs9.01Fe1.87Se1.15,26.0,original
As0.65F0.41FeLa1.11,26.0,original
Fe2.3Rb4.53Se0.97Te0.63,26.0,original
As0.65F0.67Fe0.77La1.11Zn0.38,26.0,original
As3.12Fe4.86La0.25Na2.32Rb5.68,26.0,original
Ba1.72Cu1.39O1.22Pr0.28Y1.09,26.0,original
As0.65Fe1.02La0.9,26.0,original
As1.47Ba0.64Co0.77Fe2.05,26.0,original
As0.65F0.56Fe1.02La1.11,26.0,original
As0.65F0.41Fe0.96La1.11,26.0,original
Ba1.72Cu1.96O1.59Y2.04Zn0.17,26.0,original
Cu0.13La2.32O0.48,26.0,original
Cl8.18Hf9.88Li7.24N5.82,26.0,original
As1.47Ba0.43Fe2.3K0.96,26.0,original
As0.8Ba0.64Fe2.3P1.44,26.0,original
As0.65F0.46Fe1.01La0.83Y0.13,26.0,original
As0.48F0.41Fe1.02La1.11P1.03,26.0,original
Ce0.71Cu0.13La0.11Nd7.59O0.48,26.0,original
Cu0.13La1.4O0.84Pb1.83Sr1.11,26.0,original
Cu0.13La1.4O0.82Pb1.51Sr1.11,26.0,original
Ba1.72Cu1.39O1.24Pr0.21Y1.32,26.0,original
Ce0.35Cu0.13La1.11O0.48Pr0.68,26.0,original
As0.65F0.25Fe1.02La1.11,26.0,original
As1.47Ba0.64Fe2.17Pt0.1,26.0,original
As0.98Eu4.73Fe2.3Na1.14P1.03,26.0,original
As0.24F0.41Fe1.02Nd4.84P0.85,26.0,original
Ba1.72Cu1.39O1.03Y1.49,26.0,original
Ba1.72Cu1.97O1.59Y2.04,26.0,original
Ba1.24Cu1.39La1.47O1.32,26.0,original
Bi3.08Cu0.13F3.02La0.25O0.92Sr2.6,26.0,original
Cu0.13La1.11O0.81Pb1.83Sr1.46,26.0,original
Cu0.13La2.26Nd0.84O0.49,26.0,original
B1.62LiMg2.19,26.0,original
As1.47Fe2.3O0.48Pr3.08Te2.07,26.0,original
Fe2.21Na2.52S0.5Se0.79,26.0,original
Fe2.3Rb4.53Se1.03Te0.38,26.0,original
As1.47Ca0.71Fe1.02,26.0,original
Cu0.13La2.32O0.48,25.0,original
Ba1.72Cu1.2Fe0.13O1.34Pr0.13Y1.56,25.0,original
Bi2.15Ca1.05Cu0.76Nd2.84O1.65Pb1.83Sr2.16,25.0,original
Cu1.08O1.31Pb1.51Sr2.87Y1.68,25.0,original
Cu0.13F1.45Nd9.83O0.39,25.0,original
Ba1.72Cu1.25O1.29Y2.04Zn0.43,25.0,original
B0.28Ba0.64Cu1.08O1.31Sr1.46Y2.04,25.0,original
Cu0.13O0.75Sr3.22,25.0,original
Cr0.48Cu2.02O4.94Sr13.79Tl13.51,25.0,original
Ba0.1Cu1.27O1.31Sr2.34Y2.04,25.0,original
Cu0.13La0.97O0.81Pb1.83Sr1.63,25.0,original
Ba1.29Ca0.12Cu1.39O1.09Sr0.4Yb7.41,25.0,original
Cu1.25O1.31Sr3.4Y1.42,25.0,original
Cu0.13La2.43O0.48,25.0,original
Cu0.13La0.83O0.46Sm6.8,25.0,original
Ba2.05Cu2.65La2.98O2.65Yb0.92,25.0,original
Cu0.13La2.42O0.48,25.0,original
Cu0.13La1.13O0.48Pr0.63,25.0,original
Cu0.13La1.11O0.79Sr0.93Tl4.41,25.0,original
Ba1.18Cu1.39La1.69O1.29,25.0,original
Ba1.08Cu1.39La1.83O1.29,25.0,original
Ba0.97Cu1.39La1.83O1.29,25.0,original
Ba0.75Ca0.3Cu1.39La1.83O1.25,25.0,original
Cu0.13La2.3O0.48,25.0,original
Ba1.72Cu1.98O1.59Y2.04Zn0.12,25.0,original
Cu0.13La2.33O0.48,25.0,original
Cu0.13La2.29O0.48,25.0,original
Ba1.45CoCu1.24O1.3Y2.04,25.0,original
Ba1.72Cu1.24Er7.65O1.3,25.0,original
Ba1.72Cu1.36O1.21Y2.04,25.0,original
Ba1.72Cu1.36O1.23Y2.04,25.0,original
Ba1.72Cu0.13O1.03Tl8.96,25.0,original
Ba1.72Cu1.36O1.22Y2.04,25.0,original
Ba1.72Cu1.34O1.24Y2.04Zn0.15,25.0,original
Cu0.13La1.47Nd2.84O0.48,25.0,original
Ce2.81Cu0.76Nd7.34O2.15Sr3.22Ta5.24,25.0,original
Ba0.17Bi1.47K2.28O0.2,25.0,original
Ce0.71Cu0.13Nd9.09O0.48,25.0,original
Ce0.47Cu0.13La2.39O0.48,25.0,original
Ca0.18Cu0.76Ga1.1O1.31Sr3.22Y1.32,25.0,original
Ca2.14Cl16.44Cu0.13Na0.44,25.0,original
Ca2.11Cl16.44Cu0.13Na0.54,25.0,original
Ba1.01Ce3.77Cu1.39Eu13.73O1.88,25.0,original
Ba1.44Cu1.39La0.94O1.3Y0.56,25.0,original
Ca1.05,25.0,original
Al0.14B1.62Mg2.51,25.0,original
Cu0.13La1.72Nd1.84O0.48,25.0,original
Cu0.76La1.54O0.99Pb1.18Sr1.81,25.0,original
Cu0.76La1.69O0.99Pb1.18Sr1.63,25.0,original
Ce0.26Cu0.13La2.44O0.48,25.0,original
As0.65F0.46Fe1.02La1.11,25.0,original
As0.65F0.46Fe1.01La1.11,25.0,original
Cu0.13La2.24O0.48,25.0,original
Cu0.13La2.4O0.48Sm0.57,25.0,original
Cu0.13La2.12O0.48Sm1.96,25.0,original
As1.47Ba0.64Co0.55Fe2.11,25.0,original
As1.47Eu6.81Fe2.3,25.0,original
As1.47Ca0.3Fe2.3Na2.32,25.0,original
As0.98Fe2.3P1.03Sr1.46,25.0,original
Ca2.1Cl16.44Cu0.13Na0.57,25.0,original
As0.65Fe1.02La1.11,25.0,original
As1.47Ba0.64Co0.46Fe2.14,25.0,original
As1.47Ba0.64Co0.36Fe2.16,25.0,original
As0.65F0.93Fe1.02La1.11,25.0,original
As1.23Eu6.81Fe2.3P0.47,25.0,original
As1.47Fe2.3O0.48Pr3.08Te2.07,25.0,original
As1.47Fe2.3O0.48Sm27.57Te2.17,25.0,original
As1.47Fe2.3Gd36.12O0.48Te2.12,25.0,original
As1.47Ca0.79Fe1.02,25.0,original
As14.67Ca9.79Fe12.54Pr1.5Pt7.15,25.0,original
As14.67Ca11.07Fe12.54Gd8.41Pt7.15,25.0,original
Cl8.18Hf9.88Mg0.87N5.82,25.0,original
As0.93Ba0.64Fe2.3P1.14,25.0,original
As0.65F0.46Fe1.02La0.97,25.0,original
As0.65F0.46Fe1.01La0.83Y0.13,25.0,original
Cu0.13La1.26O0.82Pb1.51Sr1.28,25.0,original
B1.26Mg3.17,25.0,original
As1.47Ba0.64Fe2.16,25.0,original
As0.65Fe1.02La0.83,25.0,original
Cu0.13La2.47O0.48,25.0,original
As0.65F0.15Fe1.02La1.11,25.0,original
As0.83Fe2.3P1.37Sr1.46,25.0,original
Bi1.47Ca1.3Cu0.76Ga1.1O1.59Sr2.87,25.0,original
Ba1.02Ca0.3Cu1.39La1.47O1.3,25.0,original
As0.65Fe1.02O0.2Sr3.22V0.73,25.0,original
As1.47Ba0.41Fe2.3K1.07,25.0,original
As1.47Fe2.3K3.41,25.0,original
As2.3Pd10.1,25.0,original
Cu0.13La2.34O0.48,25.0,original
Cu0.13La2.38O0.48,25.0,original
As0.65F0.56Fe1.02Sm6.8,25.0,original
Cu0.13La2.23O0.48,25.0,original
Ba1.72Cu0.13Hg7.24O0.58,25.0,original
Ce0.47Cu0.13La1.11O0.48Pr0.66,25.0,original
As0.65Fe1.02La0.97,25.0,original
As0.65F0.67Fe0.26La1.11Zn1.2,25.0,original
Cu0.13La2.26O0.48,25.0,original
Cu0.13F1.03Nd9.83O0.41,25.0,original
Ce4.01Cu0.76O1.81Sr3.22V0.14Y2.76,25.0,original
Cu0.13La2.39O0.48,25.0,original
Cu0.13La1.19Nd3.84O0.48,25.0,original
Au1.75B1.62Mg2.4,25.0,original
As1.47Ba0.64Fe1.79Ir0.58,25.0,original
Fe1.92K4.23S0.95Se0.54,25.0,original
As1.03Ba0.64Fe2.3P0.92,25.0,original
As1.47Fe2.3K3.19,25.0,original
Ba1.29Ca0.18Cu1.39O1.25Sr0.4Yb6.91,25.0,original
C10.41K5.32Rb11.45,25.0,original
As0.65F5.12Fe1.02Sr1.11,25.0,original
As1.47Ba0.4Fe2.3K1.12,25.0,original
Ba1.72Cu1.39Ho5.45O1.22Pr0.36,25.0,original
Ce0.44Cu0.13La2.4O0.48,25.0,original
Ce0.53Cu0.13La2.38O0.48,25.0,original
As0.65F0.67Fe1.02La1.11,25.0,original
As1.47Ba0.64Co0.39Fe2.15,25.0,original
As0.65F0.41Fe1.02La1.11,25.0,original
As0.57Ba0.64Fe2.3P1.96,25.0,original
Cu0.13La2.4O0.48,25.0,original
As0.15F0.15Fe1.02La1.11P1.03,25.0,original
Ce2.81Cu0.76Nb1.1Nd7.34O2.15Sr3.22,25.0,original
Ba1.72Cu1.26O1.31Y2.04Zn0.4,25.0,original
Cu0.13La2.48O0.49,25.0,original
Ce0.71Cu0.13O0.48Pr1.41,25.0,original
Cu0.76Eu6.81O1.59Ru1.53Sn0.25Sr3.22,25.0,original
As1.47Fe1.75Ir0.63Sr1.46,25.0,original
As1.47Fe2.3Na2.72,25.0,original
Fe1.28H3.58Li5.77S0.42Se0.21,25.0,original
Ba0.64Cu1.39O1.84Pr0.44Sr1.46Y0.61,25.0,original
Cu0.13La1.11O0.81Pb1.51Sr1.46,25.0,original
Br11.06Hf9.88Li7.24N5.82,25.0,original
Ce0.71Cu0.13Nd9.09O0.46,24.0,original
Ba0.1Bi1.47K2.59O0.2,24.0,original
Bi3.16Ce1.97Cu0.76Ho18.05O2.21Sr3.22,24.0,original
Ce0.71Cu0.13Nd9.09O0.48,24.0,original
Bi1.47Cu0.13O1.03Pb3.13Sr1.81,24.0,original
Ba0.64Ca1.05Cu1.14La1.11Ni0.81O1.27,24.0,original
Cu0.13Nd0.64Sr1.18,24.0,original
Cu1.2O1.28Sr3.22W1.53Y2.04,24.0,original
B0.28Ba0.21Cu1.08O1.31Sr2.16Y2.04,24.0,original
Bi3.08Cu0.13La0.54O0.48Sr2.25,24.0,original
Ba1.72Cu0.13O1.03Tl7.6,24.0,original
Ce2.81Cu0.76Eu10.27Nb1.1O2.15Sr3.22,24.0,original
Cu0.13La2.05O0.48Sm0.92,24.0,original
Ba1.72Cu1.39O1.03Y1.56,24.0,original
Ca0.86Cl16.44Cu0.13K0.69,24.0,original
Ca2.04Cl16.44Cu0.13K0.96,24.0,original
Ca0.74Cl16.44Cu0.13K1.23,24.0,original
Ca1.92Cl16.44Cu0.13K1.5,24.0,original
Ce1.43Cu0.13Nd6.44O0.48Sr0.42,24.0,original
Bi3.08Cu0.13La0.25O1.13Sr2.6,24.0,original
Ce4.01CoCu0.76O1.71Sr3.22Y2.76,24.0,original
Cu0.76N2.86O2.15Pb1.51Sr6.74Tl2.14,24.0,original
Cu0.13La2.33O0.48,24.0,original
Al0.98Ca0.55Cu0.76Ho4.34O1.31Sr3.22,24.0,original
Ca1.05Cu0.76O1.27Sr3.22Tl4.41,24.0,original
Cu0.13La0.83O0.48Sm6.8,24.0,original
Ba1.08Cu0.13La0.54O0.75Tl4.41,24.0,original
Ca0.18Cu0.76Fe0.38Hg3.57O1.23Sr3.22Y1.32,24.0,original
Ba1.72Cu1.2Ni0.56O1.3Sm6.8,24.0,original
Cu0.13La2.43O0.48,24.0,original
Cu0.13La2.3O0.48,24.0,original
Cu0.13La2.28O0.48,24.0,original
Ba1.72Cu1.34O1.26Y2.04Zn0.13,24.0,original
Bi3.16Cu0.13O1.03Sr2.8,24.0,original
Ba1.72Cu1.36O1.19Y2.04,24.0,original
Cu0.13La2.38O0.48,24.0,original
Ba1.18Cu1.39La0.83O1.29Pr0.13Sr0.58,24.0,original
Ce0.71Cu0.13La1.11O0.48Pr0.63,24.0,original
Ce0.71Cu0.13O0.48Pr1.41,24.0,original
Ca2.29Cl17.93Cu0.13,24.0,original
Br11.06Ca1.86Cl8.18Cu0.13Na1.33,24.0,original
B0.59Mg3.17,24.0,original
Ce0.35Cu0.13La1.11O0.48Pr0.68,24.0,original
Cu0.12La2.25O0.48,24.0,original
B2.51Pd8.47Y2.04,24.0,original
C10.41Cs10.49K10.77,24.0,original
Al0.23B1.62Mg2.22,24.0,original
B1.48Mg3.17,24.0,original
Bi0.29Cu0.76La1.83O1.02Pb0.53Sr1.46,24.0,original
Cu0.13La2.44O0.48,24.0,original
Ce0.53Cu0.13La1.11O0.46Pr0.66,24.0,original
As1.47Ba0.64Co0.42Fe2.15,24.0,original
As1.47Ba0.64Co0.77Fe2.05,24.0,original
As1.47Ba0.4Fe2.3K1.12,24.0,original
As0.65Fe1.02La1.11,24.0,original
As1.47Ca0.43Eu3.35Fe2.3,24.0,original
As0.65F0.46Fe1.01La1.11,24.0,original
As1.47Co0.77Fe2.05Mg3.17O1.03Sr6.74Ti4.19,24.0,original
Cl5.71Hf9.88N5.82,24.0,original
As1.46Ca0.81Fe1.02Nd0.79,24.0,original
As0.65Fe1.02O0.2Sr3.22V0.73,24.0,original
As0.15F0.15Fe1.02La1.11P1.03,24.0,original
As1.47Ba0.36Fe2.3K1.3,24.0,original
Fe1.79Rb4.24S0.11Se,24.0,original
As1.47Fe2.3Na2.72,24.0,original
As3.12Cs6.27Fe4.86La0.25Rb5.68,24.0,original
Ba0.64Fe2.3S3.19,24.0,original
Ba1.72Cu1.39O1.14Y2.04,24.0,original
As0.65F0.67La1.11Zn1.61,24.0,original
As0.65Fe1.02H1.39La1.11,24.0,original
As1.47Ca0.8Fe,24.0,original
Cu0.11La2.33O0.48,24.0,original
As0.65Ca1.05Co0.32F5.12Fe0.89,24.0,original
As1.47Ba0.32Fe2.3Na1.14,24.0,original
As1.47Ba0.3Fe2.3Na1.22,24.0,original
Cu0.13La2.4O0.48,24.0,original
Cu0.12La2.33O0.48,24.0,original
Ba1.72Cu1.39O1.25Pr0.28Y1.09,24.0,original
Cu0.13La2.26O0.48,24.0,original
As0.65F0.41Fe1.02La1.11,24.0,original
As0.65F0.46Fe0.89La1.11Ru0.13,24.0,original
As14.67Ca11.2Fe12.54Pt7.15Tb11.64,24.0,original
Cu0.13La2.37O0.48,24.0,original
Cu0.13O0.48Pr1.49,24.0,original
Br2.73Cl6.12Hf9.88Li7.24N5.82,24.0,original
As1.47Ba0.43Fe2.3K0.96,24.0,original
As0.65F0.46Fe0.83La1.11Ru0.27,24.0,original
As0.57F0.15Fe1.02La1.11P0.1,24.0,original
Ba1.72Cu1.39O1.13Y2.04,24.0,original
Ba1.72Cu1.39O1.31Y1.32Zn0.58,24.0,original
Ba1.72Cu1.39O1.26Pr0.32Y0.97,24.0,original
Ba0.21Bi1.44K2.05O0.2,24.0,original
Cu0.76Gd8.13Nd0.3O1.59Ru2.65Sr3.22,24.0,original
Cu0.76Eu6.81O1.59Ru2.65Sr3.22,24.0,original
Ce0.59Cu0.13La2.36O0.48,24.0,original
Br11.06Ca1.92Cl8.18Cu0.13Na1.14,24.0,original
Al0.14B1.62Mg2.51,24.0,original
As1.47Ba0.64Co0.44Fe2.14,24.0,original
As0.65Ce5.81F0.41Fe0.96,24.0,original
As1.47Fe2.3Mg2.84O1.03Sr6.74Ti4.62,24.0,original
Fe1.73Nb0.72S0.94Se0.55,24.0,original
As1.47Ba0.41Fe2.3K1.07,24.0,original
As1.47Eu6.81Fe1.79P0.66,24.0,original
Ca2.11Cl16.44Cu0.13Na0.54,24.0,original
Cu0.13La2.45O0.48,24.0,original
Ba1.72Cu1.39O1.24Pr0.13Sm5.42,24.0,original
As1.47Ba0.64Fe2.11Pt0.22,24.0,original
As0.24Fe1.02P0.85Sm6.8,24.0,original
As1.47Ba0.64Co0.54Fe2.11,24.0,original
As0.32F0.41Fe1.02P0.66Pr0.75,24.0,original
Ba1.72Cu1.39O1.31Pr0.36Y0.85,24.0,original
Ba1.72Cu1.39O1.15Y2.04,24.0,original
B2.51Pd10.1Y2.04,24.0,original
Ba0.64Bi1.47K5.32O0.2,24.0,original
As0.65F0.15Fe1.02La1.11,24.0,original
As1.47Ba0.64Co0.39Fe2.15,24.0,original
As0.65F0.93Fe0.96Sm6.8,24.0,original
As1.47Ba0.1Fe2.25K2.59Mn0.52,24.0,original
As0.9Fe2.3P1.22Sr1.46,24.0,original
As1.47Ba0.54Fe2.3Rb0.49,24.0,original
As1.08Ba0.64Fe2.3P0.81,24.0,original
As14.67Ca10.87Fe12.54La1.26Pt7.15,24.0,original
As1.47Ba0.64Fe2.13Rh0.12,24.0,original
As3.12Ca2.29F10.35Fe4.86K5.32,24.0,original
Bi3.16Cu0.13La0.25O1.12Sr2.52,24.0,original
C10.41Rb15.49Tl9.87,24.0,original
B1.62Mg3.11Mn0.24,24.0,original
As0.65Ca1.05Co0.41Fe0.87H3.58,24.0,original
As0.93Ba0.64Fe2.3P1.14,24.0,original
Bi3.16Cu0.13Nd1.84O1.12Sr2.52,24.0,original
Ba1.72Cu1.39O1.3Pr0.21Sm4.73,24.0,original
Ba0.15Bi1.47K2.37O0.2,24.0,original
As0.65F0.93Fe1.02La0.83Na0.74,24.0,original
Ba0.27Bi1.47K1.78O0.2,23.0,original
Cu0.13La2.23O0.48,23.0,original
Ba1.72Cu1.36O1.16Y2.04,23.0,original
Ce0.71Cu0.13La0.54Nd6.09O0.48,23.0,original
Bi2.49Cu0.13La0.25O1.06Pb1.18Sr2.52,23.0,original
Ce2.81Cu0.76Nb1.1O2.15Sm10.26Sr3.22,23.0,original
Ce2.81Cu0.76Eu10.27Nb1.1O2.15Sr3.22,23.0,original
Ba1.72Cu2.02O1.59Pr0.52Y0.37,23.0,original
Cu1.2O1.35Sr3.22Ti1.16Y2.04,23.0,original
Ba1.72Cu1.33O1.29Y2.04Zn0.17,23.0,original
Cu0.13K2.05O0.75Sr2.52,23.0,original
Ba0.37Cu1.39O1.29Pr0.44Sr1.9Y0.61,23.0,original